<?xml version='1.0'?>
<!-- case='sample' region='region0' time='1' index='1' -->
<VTKFile type='UnstructuredGrid' version='0.1' byte_order='LittleEndian' header_type='UInt64'>
  <UnstructuredGrid>
    <FieldData>
      <DataArray type='Float32' Name='TimeValue' NumberOfTuples='1' format='ascii'>
1
      </DataArray>
    </FieldData>
    <Piece NumberOfPoints='13' NumberOfCells='3'>
      <Points>
        <DataArray type='Float32' Name='Points' NumberOfComponents='3' format='ascii'>
          0.0 0.0 0.0
          1.0 0.0 0.0
          2.0 0.0 0.0
          0.0 1.0 0.0
          0.0 2.0 0.0
          1.0 0.0 1.0
          2.0 0.0 1.0
          0.0 2.0 1.0
          0.0 1.0 1.0
          0.0 0.0 2.0
          0.5 0.0 2.0
          0.0 0.5 2.0
          0.0 0.0 3.0
        </DataArray>
      </Points>
      <Cells>
        <DataArray type='Int32' Name='connectivity' format='ascii'>
          0 1 3 5 8 10 11 9
          1 2 3 4 5 6 7 8
          9 10 11 12
        </DataArray>
        <DataArray type='Int32' Name='offsets' format='ascii'>
          8 16 20
        </DataArray>
        <DataArray type='UInt8' Name='types' format='ascii'>
          42 42 42
        </DataArray>
        <DataArray type='Int32' Name='faces' format='ascii'>
          6
          5 0 1 5 10 9
          4 1 3 8 5
          5 0 9 11 8 3
          4 5 8 11 10
          3 9 10 11
          3 0 3 1
          6
          4 1 2 6 5
          4 2 4 7 6
          4 5 6 7 8
          4 3 8 7 4
          4 1 3 4 2
          4 1 5 8 3
          4
          3 9 11 10
          3 9 10 12
          3 10 11 12
          3 9 12 11
        </DataArray>
        <DataArray type='Int32' Name='faceoffsets' format='ascii'>
          31 62 79
        </DataArray>
      </Cells>
      <CellData>
        <DataArray type='Float32' Name='U' NumberOfComponents='3' format='ascii'>
          0.0 0.0 0.0
          0.0 1.0 0.0
          0.0 0.0 2.0
        </DataArray>
      </CellData>
      <PointData>
        <DataArray type='Float32' Name='X' NumberOfComponents='3' format='ascii'>
          0.0 0.0 0.0
          1.0 0.0 0.0
          2.0 0.0 0.0
          0.0 1.0 0.0
          0.0 2.0 0.0
          1.0 0.0 1.0
          2.0 0.0 1.0
          0.0 2.0 1.0
          0.0 1.0 1.0
          0.0 0.0 2.0
          0.5 0.0 2.0
          0.0 0.5 2.0
          0.0 0.0 30.0
        </DataArray>
      </PointData>
    </Piece>
  </UnstructuredGrid>
</VTKFile>
