<?xml version="1.0"?>
<VTKFile type="UnstructuredGrid" version="0.1" byte_order="LittleEndian" header_type="UInt32" compressor="vtkZLibDataCompressor">
  <UnstructuredGrid>
    <Piece NumberOfPoints="22" NumberOfCells="5">
      <PointData>
        <DataArray type="Float64" Name="NODE" NumberOfComponents="3" format="ascii" RangeMin="0" RangeMax="1.7320508075688772">
          0 0 0 0.4 0 0
          1 0 0 0 0.4 0
          0.4 0.5 0 1 0.6000000000000001 0
          0 1 0 0.4 1 0
          1 1 0 0.4 0 0.4
          1 0 0.4 0.4 0.5 0.4
          1 0.6000000000000001 0.4 0 0 1
          0.4 0 1 1 0 1
          0 0.4 1 0.4 0.5 1
          1 0.6000000000000001 1 0 1 1
          0.4 1 1 1 1 1
          <InformationKey name="L2_NORM_RANGE" location="vtkDataArray" length="2">
            <Value index="0">
              0
            </Value>
            <Value index="1">
              1.7320508076
            </Value>
          </InformationKey>
        </DataArray>
      </PointData>
      <CellData>
      </CellData>
      <Points>
        <DataArray type="Float64" Name="Points" NumberOfComponents="3" format="ascii" RangeMin="0" RangeMax="1.7320508075688772">
          0 0 0 0.4 0 0
          1 0 0 0 0.4 0
          0.4 0.5 0 1 0.6000000000000001 0
          0 1 0 0.4 1 0
          1 1 0 0.4 0 0.4
          1 0 0.4 0.4 0.5 0.4
          1 0.6000000000000001 0.4 0 0 1
          0.4 0 1 1 0 1
          0 0.4 1 0.4 0.5 1
          1 0.6000000000000001 1 0 1 1
          0.4 1 1 1 1 1
          <InformationKey name="L2_NORM_RANGE" location="vtkDataArray" length="2">
            <Value index="0">
              0
            </Value>
            <Value index="1">
              1.7320508076
            </Value>
          </InformationKey>
        </DataArray>
      </Points>
      <Cells>
        <DataArray type="Int32" Name="connectivity" format="ascii" RangeMin="0" RangeMax="21">
          4 5 7 8 11 12
          17 18 20 21 3 4
          6 7 11 16 17 19
          20 9 10 11 12 14
          15 17 18 0 1 3
          4 9 11 13 14 16
          17 1 2 4 5 9
          10 11 12
        </DataArray>
        <DataArray type="Int32" Name="offsets" format="ascii" RangeMin="10" RangeMax="45">
          10 19 27 37 45
        </DataArray>
        <DataArray type="UInt8" Name="types" format="ascii" RangeMin="42" RangeMax="42">
          42 42 42 42 42
        </DataArray>
        <DataArray type="Int32" IdType="1" Name="faces" format="ascii" RangeMin="0" RangeMax="21">
          7 4 4 7 8 5
          4 4 5 12 11 4
          11 12 18 17 4 7
          20 21 8 4 17 18
          21 20 5 4 11 17
          20 7 5 5 8 21
          18 12 6 4 3 16
          19 6 4 4 3 6
          7 5 3 4 11 17
          16 5 4 7 20 17
          11 4 6 19 20 7
          4 17 20 19 16 6
          4 11 12 10 9 4
          9 10 15 14 4 10
          12 18 15 4 11 17
          18 12 4 17 14 15
          18 4 9 14 17 11
          7 4 0 3 4 1
          5 0 1 9 14 13
          4 0 13 16 3 4
          1 4 11 9 5 3
          16 17 11 4 4 9
          11 17 14 4 13 14
          17 16 6 4 4 5
          2 1 4 1 2 10
          9 4 2 5 12 10
          4 4 11 12 5 4
          11 9 10 12 4 1
          9 11 4
        </DataArray>
        <DataArray type="Int32" IdType="1" Name="faceoffsets" format="ascii" RangeMin="38" RangeMax="171">
          38 71 102 140 171
        </DataArray>
      </Cells>
    </Piece>
  </UnstructuredGrid>
</VTKFile>
