<?xml version="1.0"?>
<VTKFile type="UnstructuredGrid" version="0.1" byte_order="LittleEndian" header_type="UInt32" compressor="vtkZLibDataCompressor">
  <UnstructuredGrid>
    <Piece NumberOfPoints="216" NumberOfCells="125">
      <PointData>
        <DataArray type="Float64" Name="NODE" NumberOfComponents="3" format="ascii" RangeMin="0" RangeMax="1.7320508075688772">
          0 0 0 0.2 0 0
          0.4 0 0 0.6000000000000001 0 0
          0.8 0 0 1 0 0
          0 0.2 0 0.2 0.2 0
          0.4 0.2 0 0.6000000000000001 0.2 0
          0.8 0.2 0 1 0.2 0
          0 0.4 0 0.2 0.4 0
          0.4 0.4 0 0.6000000000000001 0.4 0
          0.8 0.4 0 1 0.4 0
          0 0.6000000000000001 0 0.2 0.6000000000000001 0
          0.4 0.6000000000000001 0 0.6000000000000001 0.6000000000000001 0
          0.8 0.6000000000000001 0 1 0.6000000000000001 0
          0 0.8 0 0.2 0.8 0
          0.4 0.8 0 0.6000000000000001 0.8 0
          0.8 0.8 0 1 0.8 0
          0 1 0 0.2 1 0
          0.4 1 0 0.6000000000000001 1 0
          0.8 1 0 1 1 0
          0 0 0.2 0.2 0 0.2
          0.4 0 0.2 0.6000000000000001 0 0.2
          0.8 0 0.2 1 0 0.2
          0 0.2 0.2 0.2 0.2 0.2
          0.4 0.2 0.2 0.6000000000000001 0.2 0.2
          0.8 0.2 0.2 1 0.2 0.2
          0 0.4 0.2 0.2 0.4 0.2
          0.4 0.4 0.2 0.6000000000000001 0.4 0.2
          0.8 0.4 0.2 1 0.4 0.2
          0 0.6000000000000001 0.2 0.2 0.6000000000000001 0.2
          0.4 0.6000000000000001 0.2 0.6000000000000001 0.6000000000000001 0.2
          0.8 0.6000000000000001 0.2 1 0.6000000000000001 0.2
          0 0.8 0.2 0.2 0.8 0.2
          0.4 0.8 0.2 0.6000000000000001 0.8 0.2
          0.8 0.8 0.2 1 0.8 0.2
          0 1 0.2 0.2 1 0.2
          0.4 1 0.2 0.6000000000000001 1 0.2
          0.8 1 0.2 1 1 0.2
          0 0 0.4 0.2 0 0.4
          0.4 0 0.4 0.6000000000000001 0 0.4
          0.8 0 0.4 1 0 0.4
          0 0.2 0.4 0.2 0.2 0.4
          0.4 0.2 0.4 0.6000000000000001 0.2 0.4
          0.8 0.2 0.4 1 0.2 0.4
          0 0.4 0.4 0.2 0.4 0.4
          0.4 0.4 0.4 0.6000000000000001 0.4 0.4
          0.8 0.4 0.4 1 0.4 0.4
          0 0.6000000000000001 0.4 0.2 0.6000000000000001 0.4
          0.4 0.6000000000000001 0.4 0.6000000000000001 0.6000000000000001 0.4
          0.8 0.6000000000000001 0.4 1 0.6000000000000001 0.4
          0 0.8 0.4 0.2 0.8 0.4
          0.4 0.8 0.4 0.6000000000000001 0.8 0.4
          0.8 0.8 0.4 1 0.8 0.4
          0 1 0.4 0.2 1 0.4
          0.4 1 0.4 0.6000000000000001 1 0.4
          0.8 1 0.4 1 1 0.4
          0 0 0.6000000000000001 0.2 0 0.6000000000000001
          0.4 0 0.6000000000000001 0.6000000000000001 0 0.6000000000000001
          0.8 0 0.6000000000000001 1 0 0.6000000000000001
          0 0.2 0.6000000000000001 0.2 0.2 0.6000000000000001
          0.4 0.2 0.6000000000000001 0.6000000000000001 0.2 0.6000000000000001
          0.8 0.2 0.6000000000000001 1 0.2 0.6000000000000001
          0 0.4 0.6000000000000001 0.2 0.4 0.6000000000000001
          0.4 0.4 0.6000000000000001 0.6000000000000001 0.4 0.6000000000000001
          0.8 0.4 0.6000000000000001 1 0.4 0.6000000000000001
          0 0.6000000000000001 0.6000000000000001 0.2 0.6000000000000001 0.6000000000000001
          0.4 0.6000000000000001 0.6000000000000001 0.6000000000000001 0.6000000000000001 0.6000000000000001
          0.8 0.6000000000000001 0.6000000000000001 1 0.6000000000000001 0.6000000000000001
          0 0.8 0.6000000000000001 0.2 0.8 0.6000000000000001
          0.4 0.8 0.6000000000000001 0.6000000000000001 0.8 0.6000000000000001
          0.8 0.8 0.6000000000000001 1 0.8 0.6000000000000001
          0 1 0.6000000000000001 0.2 1 0.6000000000000001
          0.4 1 0.6000000000000001 0.6000000000000001 1 0.6000000000000001
          0.8 1 0.6000000000000001 1 1 0.6000000000000001
          0 0 0.8 0.2 0 0.8
          0.4 0 0.8 0.6000000000000001 0 0.8
          0.8 0 0.8 1 0 0.8
          0 0.2 0.8 0.2 0.2 0.8
          0.4 0.2 0.8 0.6000000000000001 0.2 0.8
          0.8 0.2 0.8 1 0.2 0.8
          0 0.4 0.8 0.2 0.4 0.8
          0.4 0.4 0.8 0.6000000000000001 0.4 0.8
          0.8 0.4 0.8 1 0.4 0.8
          0 0.6000000000000001 0.8 0.2 0.6000000000000001 0.8
          0.4 0.6000000000000001 0.8 0.6000000000000001 0.6000000000000001 0.8
          0.8 0.6000000000000001 0.8 1 0.6000000000000001 0.8
          0 0.8 0.8 0.2 0.8 0.8
          0.4 0.8 0.8 0.6000000000000001 0.8 0.8
          0.8 0.8 0.8 1 0.8 0.8
          0 1 0.8 0.2 1 0.8
          0.4 1 0.8 0.6000000000000001 1 0.8
          0.8 1 0.8 1 1 0.8
          0 0 1 0.2 0 1
          0.4 0 1 0.6000000000000001 0 1
          0.8 0 1 1 0 1
          0 0.2 1 0.2 0.2 1
          0.4 0.2 1 0.6000000000000001 0.2 1
          0.8 0.2 1 1 0.2 1
          0 0.4 1 0.2 0.4 1
          0.4 0.4 1 0.6000000000000001 0.4 1
          0.8 0.4 1 1 0.4 1
          0 0.6000000000000001 1 0.2 0.6000000000000001 1
          0.4 0.6000000000000001 1 0.6000000000000001 0.6000000000000001 1
          0.8 0.6000000000000001 1 1 0.6000000000000001 1
          0 0.8 1 0.2 0.8 1
          0.4 0.8 1 0.6000000000000001 0.8 1
          0.8 0.8 1 1 0.8 1
          0 1 1 0.2 1 1
          0.4 1 1 0.6000000000000001 1 1
          0.8 1 1 1 1 1
          <InformationKey name="L2_NORM_RANGE" location="vtkDataArray" length="2">
            <Value index="0">
              0
            </Value>
            <Value index="1">
              1.7320508076
            </Value>
          </InformationKey>
        </DataArray>
      </PointData>
      <CellData>
      </CellData>
      <Points>
        <DataArray type="Float64" Name="Points" NumberOfComponents="3" format="ascii" RangeMin="0" RangeMax="1.7320508075688772">
          0 0 0 0.2 0 0
          0.4 0 0 0.6000000000000001 0 0
          0.8 0 0 1 0 0
          0 0.2 0 0.2 0.2 0
          0.4 0.2 0 0.6000000000000001 0.2 0
          0.8 0.2 0 1 0.2 0
          0 0.4 0 0.2 0.4 0
          0.4 0.4 0 0.6000000000000001 0.4 0
          0.8 0.4 0 1 0.4 0
          0 0.6000000000000001 0 0.2 0.6000000000000001 0
          0.4 0.6000000000000001 0 0.6000000000000001 0.6000000000000001 0
          0.8 0.6000000000000001 0 1 0.6000000000000001 0
          0 0.8 0 0.2 0.8 0
          0.4 0.8 0 0.6000000000000001 0.8 0
          0.8 0.8 0 1 0.8 0
          0 1 0 0.2 1 0
          0.4 1 0 0.6000000000000001 1 0
          0.8 1 0 1 1 0
          0 0 0.2 0.2 0 0.2
          0.4 0 0.2 0.6000000000000001 0 0.2
          0.8 0 0.2 1 0 0.2
          0 0.2 0.2 0.2 0.2 0.2
          0.4 0.2 0.2 0.6000000000000001 0.2 0.2
          0.8 0.2 0.2 1 0.2 0.2
          0 0.4 0.2 0.2 0.4 0.2
          0.4 0.4 0.2 0.6000000000000001 0.4 0.2
          0.8 0.4 0.2 1 0.4 0.2
          0 0.6000000000000001 0.2 0.2 0.6000000000000001 0.2
          0.4 0.6000000000000001 0.2 0.6000000000000001 0.6000000000000001 0.2
          0.8 0.6000000000000001 0.2 1 0.6000000000000001 0.2
          0 0.8 0.2 0.2 0.8 0.2
          0.4 0.8 0.2 0.6000000000000001 0.8 0.2
          0.8 0.8 0.2 1 0.8 0.2
          0 1 0.2 0.2 1 0.2
          0.4 1 0.2 0.6000000000000001 1 0.2
          0.8 1 0.2 1 1 0.2
          0 0 0.4 0.2 0 0.4
          0.4 0 0.4 0.6000000000000001 0 0.4
          0.8 0 0.4 1 0 0.4
          0 0.2 0.4 0.2 0.2 0.4
          0.4 0.2 0.4 0.6000000000000001 0.2 0.4
          0.8 0.2 0.4 1 0.2 0.4
          0 0.4 0.4 0.2 0.4 0.4
          0.4 0.4 0.4 0.6000000000000001 0.4 0.4
          0.8 0.4 0.4 1 0.4 0.4
          0 0.6000000000000001 0.4 0.2 0.6000000000000001 0.4
          0.4 0.6000000000000001 0.4 0.6000000000000001 0.6000000000000001 0.4
          0.8 0.6000000000000001 0.4 1 0.6000000000000001 0.4
          0 0.8 0.4 0.2 0.8 0.4
          0.4 0.8 0.4 0.6000000000000001 0.8 0.4
          0.8 0.8 0.4 1 0.8 0.4
          0 1 0.4 0.2 1 0.4
          0.4 1 0.4 0.6000000000000001 1 0.4
          0.8 1 0.4 1 1 0.4
          0 0 0.6000000000000001 0.2 0 0.6000000000000001
          0.4 0 0.6000000000000001 0.6000000000000001 0 0.6000000000000001
          0.8 0 0.6000000000000001 1 0 0.6000000000000001
          0 0.2 0.6000000000000001 0.2 0.2 0.6000000000000001
          0.4 0.2 0.6000000000000001 0.6000000000000001 0.2 0.6000000000000001
          0.8 0.2 0.6000000000000001 1 0.2 0.6000000000000001
          0 0.4 0.6000000000000001 0.2 0.4 0.6000000000000001
          0.4 0.4 0.6000000000000001 0.6000000000000001 0.4 0.6000000000000001
          0.8 0.4 0.6000000000000001 1 0.4 0.6000000000000001
          0 0.6000000000000001 0.6000000000000001 0.2 0.6000000000000001 0.6000000000000001
          0.4 0.6000000000000001 0.6000000000000001 0.6000000000000001 0.6000000000000001 0.6000000000000001
          0.8 0.6000000000000001 0.6000000000000001 1 0.6000000000000001 0.6000000000000001
          0 0.8 0.6000000000000001 0.2 0.8 0.6000000000000001
          0.4 0.8 0.6000000000000001 0.6000000000000001 0.8 0.6000000000000001
          0.8 0.8 0.6000000000000001 1 0.8 0.6000000000000001
          0 1 0.6000000000000001 0.2 1 0.6000000000000001
          0.4 1 0.6000000000000001 0.6000000000000001 1 0.6000000000000001
          0.8 1 0.6000000000000001 1 1 0.6000000000000001
          0 0 0.8 0.2 0 0.8
          0.4 0 0.8 0.6000000000000001 0 0.8
          0.8 0 0.8 1 0 0.8
          0 0.2 0.8 0.2 0.2 0.8
          0.4 0.2 0.8 0.6000000000000001 0.2 0.8
          0.8 0.2 0.8 1 0.2 0.8
          0 0.4 0.8 0.2 0.4 0.8
          0.4 0.4 0.8 0.6000000000000001 0.4 0.8
          0.8 0.4 0.8 1 0.4 0.8
          0 0.6000000000000001 0.8 0.2 0.6000000000000001 0.8
          0.4 0.6000000000000001 0.8 0.6000000000000001 0.6000000000000001 0.8
          0.8 0.6000000000000001 0.8 1 0.6000000000000001 0.8
          0 0.8 0.8 0.2 0.8 0.8
          0.4 0.8 0.8 0.6000000000000001 0.8 0.8
          0.8 0.8 0.8 1 0.8 0.8
          0 1 0.8 0.2 1 0.8
          0.4 1 0.8 0.6000000000000001 1 0.8
          0.8 1 0.8 1 1 0.8
          0 0 1 0.2 0 1
          0.4 0 1 0.6000000000000001 0 1
          0.8 0 1 1 0 1
          0 0.2 1 0.2 0.2 1
          0.4 0.2 1 0.6000000000000001 0.2 1
          0.8 0.2 1 1 0.2 1
          0 0.4 1 0.2 0.4 1
          0.4 0.4 1 0.6000000000000001 0.4 1
          0.8 0.4 1 1 0.4 1
          0 0.6000000000000001 1 0.2 0.6000000000000001 1
          0.4 0.6000000000000001 1 0.6000000000000001 0.6000000000000001 1
          0.8 0.6000000000000001 1 1 0.6000000000000001 1
          0 0.8 1 0.2 0.8 1
          0.4 0.8 1 0.6000000000000001 0.8 1
          0.8 0.8 1 1 0.8 1
          0 1 1 0.2 1 1
          0.4 1 1 0.6000000000000001 1 1
          0.8 1 1 1 1 1
          <InformationKey name="L2_NORM_RANGE" location="vtkDataArray" length="2">
            <Value index="0">
              0
            </Value>
            <Value index="1">
              1.7320508076
            </Value>
          </InformationKey>
        </DataArray>
      </Points>
      <Cells>
        <DataArray type="Int32" Name="connectivity" format="ascii" RangeMin="0" RangeMax="215">
          0 1 6 7 36 37
          42 43 1 2 7 8
          37 38 43 44 2 3
          8 9 38 39 44 45
          3 4 9 10 39 40
          45 46 4 5 10 11
          40 41 46 47 6 7
          12 13 42 43 48 49
          7 8 13 14 43 44
          49 50 8 9 14 15
          44 45 50 51 9 10
          15 16 45 46 51 52
          10 11 16 17 46 47
          52 53 12 13 18 19
          48 49 54 55 13 14
          19 20 49 50 55 56
          14 15 20 21 50 51
          56 57 15 16 21 22
          51 52 57 58 16 17
          22 23 52 53 58 59
          18 19 24 25 54 55
          60 61 19 20 25 26
          55 56 61 62 20 21
          26 27 56 57 62 63
          21 22 27 28 57 58
          63 64 22 23 28 29
          58 59 64 65 24 25
          30 31 60 61 66 67
          25 26 31 32 61 62
          67 68 26 27 32 33
          62 63 68 69 27 28
          33 34 63 64 69 70
          28 29 34 35 64 65
          70 71 36 37 42 43
          72 73 78 79 37 38
          43 44 73 74 79 80
          38 39 44 45 74 75
          80 81 39 40 45 46
          75 76 81 82 40 41
          46 47 76 77 82 83
          42 43 48 49 78 79
          84 85 43 44 49 50
          79 80 85 86 44 45
          50 51 80 81 86 87
          45 46 51 52 81 82
          87 88 46 47 52 53
          82 83 88 89 48 49
          54 55 84 85 90 91
          49 50 55 56 85 86
          91 92 50 51 56 57
          86 87 92 93 51 52
          57 58 87 88 93 94
          52 53 58 59 88 89
          94 95 54 55 60 61
          90 91 96 97 55 56
          61 62 91 92 97 98
          56 57 62 63 92 93
          98 99 57 58 63 64
          93 94 99 100 58 59
          64 65 94 95 100 101
          60 61 66 67 96 97
          102 103 61 62 67 68
          97 98 103 104 62 63
          68 69 98 99 104 105
          63 64 69 70 99 100
          105 106 64 65 70 71
          100 101 106 107 72 73
          78 79 108 109 114 115
          73 74 79 80 109 110
          115 116 74 75 80 81
          110 111 116 117 75 76
          81 82 111 112 117 118
          76 77 82 83 112 113
          118 119 78 79 84 85
          114 115 120 121 79 80
          85 86 115 116 121 122
          80 81 86 87 116 117
          122 123 81 82 87 88
          117 118 123 124 82 83
          88 89 118 119 124 125
          84 85 90 91 120 121
          126 127 85 86 91 92
          121 122 127 128 86 87
          92 93 122 123 128 129
          87 88 93 94 123 124
          129 130 88 89 94 95
          124 125 130 131 90 91
          96 97 126 127 132 133
          91 92 97 98 127 128
          133 134 92 93 98 99
          128 129 134 135 93 94
          99 100 129 130 135 136
          94 95 100 101 130 131
          136 137 96 97 102 103
          132 133 138 139 97 98
          103 104 133 134 139 140
          98 99 104 105 134 135
          140 141 99 100 105 106
          135 136 141 142 100 101
          106 107 136 137 142 143
          108 109 114 115 144 145
          150 151 109 110 115 116
          145 146 151 152 110 111
          116 117 146 147 152 153
          111 112 117 118 147 148
          153 154 112 113 118 119
          148 149 154 155 114 115
          120 121 150 151 156 157
          115 116 121 122 151 152
          157 158 116 117 122 123
          152 153 158 159 117 118
          123 124 153 154 159 160
          118 119 124 125 154 155
          160 161 120 121 126 127
          156 157 162 163 121 122
          127 128 157 158 163 164
          122 123 128 129 158 159
          164 165 123 124 129 130
          159 160 165 166 124 125
          130 131 160 161 166 167
          126 127 132 133 162 163
          168 169 127 128 133 134
          163 164 169 170 128 129
          134 135 164 165 170 171
          129 130 135 136 165 166
          171 172 130 131 136 137
          166 167 172 173 132 133
          138 139 168 169 174 175
          133 134 139 140 169 170
          175 176 134 135 140 141
          170 171 176 177 135 136
          141 142 171 172 177 178
          136 137 142 143 172 173
          178 179 144 145 150 151
          180 181 186 187 145 146
          151 152 181 182 187 188
          146 147 152 153 182 183
          188 189 147 148 153 154
          183 184 189 190 148 149
          154 155 184 185 190 191
          150 151 156 157 186 187
          192 193 151 152 157 158
          187 188 193 194 152 153
          158 159 188 189 194 195
          153 154 159 160 189 190
          195 196 154 155 160 161
          190 191 196 197 156 157
          162 163 192 193 198 199
          157 158 163 164 193 194
          199 200 158 159 164 165
          194 195 200 201 159 160
          165 166 195 196 201 202
          160 161 166 167 196 197
          202 203 162 163 168 169
          198 199 204 205 163 164
          169 170 199 200 205 206
          164 165 170 171 200 201
          206 207 165 166 171 172
          201 202 207 208 166 167
          172 173 202 203 208 209
          168 169 174 175 204 205
          210 211 169 170 175 176
          205 206 211 212 170 171
          176 177 206 207 212 213
          171 172 177 178 207 208
          213 214 172 173 178 179
          208 209 214 215
        </DataArray>
        <DataArray type="Int32" Name="offsets" format="ascii" RangeMin="8" RangeMax="1000">
          8 16 24 32 40 48
          56 64 72 80 88 96
          104 112 120 128 136 144
          152 160 168 176 184 192
          200 208 216 224 232 240
          248 256 264 272 280 288
          296 304 312 320 328 336
          344 352 360 368 376 384
          392 400 408 416 424 432
          440 448 456 464 472 480
          488 496 504 512 520 528
          536 544 552 560 568 576
          584 592 600 608 616 624
          632 640 648 656 664 672
          680 688 696 704 712 720
          728 736 744 752 760 768
          776 784 792 800 808 816
          824 832 840 848 856 864
          872 880 888 896 904 912
          920 928 936 944 952 960
          968 976 984 992 1000
        </DataArray>
        <DataArray type="UInt8" Name="types" format="ascii" RangeMin="42" RangeMax="42">
          42 42 42 42 42 42
          42 42 42 42 42 42
          42 42 42 42 42 42
          42 42 42 42 42 42
          42 42 42 42 42 42
          42 42 42 42 42 42
          42 42 42 42 42 42
          42 42 42 42 42 42
          42 42 42 42 42 42
          42 42 42 42 42 42
          42 42 42 42 42 42
          42 42 42 42 42 42
          42 42 42 42 42 42
          42 42 42 42 42 42
          42 42 42 42 42 42
          42 42 42 42 42 42
          42 42 42 42 42 42
          42 42 42 42 42 42
          42 42 42 42 42 42
          42 42 42 42 42 42
          42 42 42 42 42
        </DataArray>
        <DataArray type="Int32" IdType="1" Name="faces" format="ascii" RangeMin="0" RangeMax="215">
          6 4 36 37 43 42
          4 37 36 0 1 4
          43 37 1 7 4 42
          43 7 6 4 36 42
          6 0 4 6 7 1
          0 6 4 37 38 44
          43 4 38 37 1 2
          4 44 38 2 8 4
          43 44 8 7 4 37
          43 7 1 4 7 8
          2 1 6 4 38 39
          45 44 4 39 38 2
          3 4 45 39 3 9
          4 44 45 9 8 4
          38 44 8 2 4 8
          9 3 2 6 4 39
          40 46 45 4 40 39
          3 4 4 46 40 4
          10 4 45 46 10 9
          4 39 45 9 3 4
          9 10 4 3 6 4
          40 41 47 46 4 41
          40 4 5 4 47 41
          5 11 4 46 47 11
          10 4 40 46 10 4
          4 10 11 5 4 6
          4 42 43 49 48 4
          43 42 6 7 4 49
          43 7 13 4 48 49
          13 12 4 42 48 12
          6 4 12 13 7 6
          6 4 43 44 50 49
          4 44 43 7 8 4
          50 44 8 14 4 49
          50 14 13 4 43 49
          13 7 4 13 14 8
          7 6 4 44 45 51
          50 4 45 44 8 9
          4 51 45 9 15 4
          50 51 15 14 4 44
          50 14 8 4 14 15
          9 8 6 4 45 46
          52 51 4 46 45 9
          10 4 52 46 10 16
          4 51 52 16 15 4
          45 51 15 9 4 15
          16 10 9 6 4 46
          47 53 52 4 47 46
          10 11 4 53 47 11
          17 4 52 53 17 16
          4 46 52 16 10 4
          16 17 11 10 6 4
          48 49 55 54 4 49
          48 12 13 4 55 49
          13 19 4 54 55 19
          18 4 48 54 18 12
          4 18 19 13 12 6
          4 49 50 56 55 4
          50 49 13 14 4 56
          50 14 20 4 55 56
          20 19 4 49 55 19
          13 4 19 20 14 13
          6 4 50 51 57 56
          4 51 50 14 15 4
          57 51 15 21 4 56
          57 21 20 4 50 56
          20 14 4 20 21 15
          14 6 4 51 52 58
          57 4 52 51 15 16
          4 58 52 16 22 4
          57 58 22 21 4 51
          57 21 15 4 21 22
          16 15 6 4 52 53
          59 58 4 53 52 16
          17 4 59 53 17 23
          4 58 59 23 22 4
          52 58 22 16 4 22
          23 17 16 6 4 54
          55 61 60 4 55 54
          18 19 4 61 55 19
          25 4 60 61 25 24
          4 54 60 24 18 4
          24 25 19 18 6 4
          55 56 62 61 4 56
          55 19 20 4 62 56
          20 26 4 61 62 26
          25 4 55 61 25 19
          4 25 26 20 19 6
          4 56 57 63 62 4
          57 56 20 21 4 63
          57 21 27 4 62 63
          27 26 4 56 62 26
          20 4 26 27 21 20
          6 4 57 58 64 63
          4 58 57 21 22 4
          64 58 22 28 4 63
          64 28 27 4 57 63
          27 21 4 27 28 22
          21 6 4 58 59 65
          64 4 59 58 22 23
          4 65 59 23 29 4
          64 65 29 28 4 58
          64 28 22 4 28 29
          23 22 6 4 60 61
          67 66 4 61 60 24
          25 4 67 61 25 31
          4 66 67 31 30 4
          60 66 30 24 4 30
          31 25 24 6 4 61
          62 68 67 4 62 61
          25 26 4 68 62 26
          32 4 67 68 32 31
          4 61 67 31 25 4
          31 32 26 25 6 4
          62 63 69 68 4 63
          62 26 27 4 69 63
          27 33 4 68 69 33
          32 4 62 68 32 26
          4 32 33 27 26 6
          4 63 64 70 69 4
          64 63 27 28 4 70
          64 28 34 4 69 70
          34 33 4 63 69 33
          27 4 33 34 28 27
          6 4 64 65 71 70
          4 65 64 28 29 4
          71 65 29 35 4 70
          71 35 34 4 64 70
          34 28 4 34 35 29
          28 6 4 72 73 79
          78 4 73 72 36 37
          4 79 73 37 43 4
          78 79 43 42 4 72
          78 42 36 4 42 43
          37 36 6 4 73 74
          80 79 4 74 73 37
          38 4 80 74 38 44
          4 79 80 44 43 4
          73 79 43 37 4 43
          44 38 37 6 4 74
          75 81 80 4 75 74
          38 39 4 81 75 39
          45 4 80 81 45 44
          4 74 80 44 38 4
          44 45 39 38 6 4
          75 76 82 81 4 76
          75 39 40 4 82 76
          40 46 4 81 82 46
          45 4 75 81 45 39
          4 45 46 40 39 6
          4 76 77 83 82 4
          77 76 40 41 4 83
          77 41 47 4 82 83
          47 46 4 76 82 46
          40 4 46 47 41 40
          6 4 78 79 85 84
          4 79 78 42 43 4
          85 79 43 49 4 84
          85 49 48 4 78 84
          48 42 4 48 49 43
          42 6 4 79 80 86
          85 4 80 79 43 44
          4 86 80 44 50 4
          85 86 50 49 4 79
          85 49 43 4 49 50
          44 43 6 4 80 81
          87 86 4 81 80 44
          45 4 87 81 45 51
          4 86 87 51 50 4
          80 86 50 44 4 50
          51 45 44 6 4 81
          82 88 87 4 82 81
          45 46 4 88 82 46
          52 4 87 88 52 51
          4 81 87 51 45 4
          51 52 46 45 6 4
          82 83 89 88 4 83
          82 46 47 4 89 83
          47 53 4 88 89 53
          52 4 82 88 52 46
          4 52 53 47 46 6
          4 84 85 91 90 4
          85 84 48 49 4 91
          85 49 55 4 90 91
          55 54 4 84 90 54
          48 4 54 55 49 48
          6 4 85 86 92 91
          4 86 85 49 50 4
          92 86 50 56 4 91
          92 56 55 4 85 91
          55 49 4 55 56 50
          49 6 4 86 87 93
          92 4 87 86 50 51
          4 93 87 51 57 4
          92 93 57 56 4 86
          92 56 50 4 56 57
          51 50 6 4 87 88
          94 93 4 88 87 51
          52 4 94 88 52 58
          4 93 94 58 57 4
          87 93 57 51 4 57
          58 52 51 6 4 88
          89 95 94 4 89 88
          52 53 4 95 89 53
          59 4 94 95 59 58
          4 88 94 58 52 4
          58 59 53 52 6 4
          90 91 97 96 4 91
          90 54 55 4 97 91
          55 61 4 96 97 61
          60 4 90 96 60 54
          4 60 61 55 54 6
          4 91 92 98 97 4
          92 91 55 56 4 98
          92 56 62 4 97 98
          62 61 4 91 97 61
          55 4 61 62 56 55
          6 4 92 93 99 98
          4 93 92 56 57 4
          99 93 57 63 4 98
          99 63 62 4 92 98
          62 56 4 62 63 57
          56 6 4 93 94 100
          99 4 94 93 57 58
          4 100 94 58 64 4
          99 100 64 63 4 93
          99 63 57 4 63 64
          58 57 6 4 94 95
          101 100 4 95 94 58
          59 4 101 95 59 65
          4 100 101 65 64 4
          94 100 64 58 4 64
          65 59 58 6 4 96
          97 103 102 4 97 96
          60 61 4 103 97 61
          67 4 102 103 67 66
          4 96 102 66 60 4
          66 67 61 60 6 4
          97 98 104 103 4 98
          97 61 62 4 104 98
          62 68 4 103 104 68
          67 4 97 103 67 61
          4 67 68 62 61 6
          4 98 99 105 104 4
          99 98 62 63 4 105
          99 63 69 4 104 105
          69 68 4 98 104 68
          62 4 68 69 63 62
          6 4 99 100 106 105
          4 100 99 63 64 4
          106 100 64 70 4 105
          106 70 69 4 99 105
          69 63 4 69 70 64
          63 6 4 100 101 107
          106 4 101 100 64 65
          4 107 101 65 71 4
          106 107 71 70 4 100
          106 70 64 4 70 71
          65 64 6 4 108 109
          115 114 4 109 108 72
          73 4 115 109 73 79
          4 114 115 79 78 4
          108 114 78 72 4 78
          79 73 72 6 4 109
          110 116 115 4 110 109
          73 74 4 116 110 74
          80 4 115 116 80 79
          4 109 115 79 73 4
          79 80 74 73 6 4
          110 111 117 116 4 111
          110 74 75 4 117 111
          75 81 4 116 117 81
          80 4 110 116 80 74
          4 80 81 75 74 6
          4 111 112 118 117 4
          112 111 75 76 4 118
          112 76 82 4 117 118
          82 81 4 111 117 81
          75 4 81 82 76 75
          6 4 112 113 119 118
          4 113 112 76 77 4
          119 113 77 83 4 118
          119 83 82 4 112 118
          82 76 4 82 83 77
          76 6 4 114 115 121
          120 4 115 114 78 79
          4 121 115 79 85 4
          120 121 85 84 4 114
          120 84 78 4 84 85
          79 78 6 4 115 116
          122 121 4 116 115 79
          80 4 122 116 80 86
          4 121 122 86 85 4
          115 121 85 79 4 85
          86 80 79 6 4 116
          117 123 122 4 117 116
          80 81 4 123 117 81
          87 4 122 123 87 86
          4 116 122 86 80 4
          86 87 81 80 6 4
          117 118 124 123 4 118
          117 81 82 4 124 118
          82 88 4 123 124 88
          87 4 117 123 87 81
          4 87 88 82 81 6
          4 118 119 125 124 4
          119 118 82 83 4 125
          119 83 89 4 124 125
          89 88 4 118 124 88
          82 4 88 89 83 82
          6 4 120 121 127 126
          4 121 120 84 85 4
          127 121 85 91 4 126
          127 91 90 4 120 126
          90 84 4 90 91 85
          84 6 4 121 122 128
          127 4 122 121 85 86
          4 128 122 86 92 4
          127 128 92 91 4 121
          127 91 85 4 91 92
          86 85 6 4 122 123
          129 128 4 123 122 86
          87 4 129 123 87 93
          4 128 129 93 92 4
          122 128 92 86 4 92
          93 87 86 6 4 123
          124 130 129 4 124 123
          87 88 4 130 124 88
          94 4 129 130 94 93
          4 123 129 93 87 4
          93 94 88 87 6 4
          124 125 131 130 4 125
          124 88 89 4 131 125
          89 95 4 130 131 95
          94 4 124 130 94 88
          4 94 95 89 88 6
          4 126 127 133 132 4
          127 126 90 91 4 133
          127 91 97 4 132 133
          97 96 4 126 132 96
          90 4 96 97 91 90
          6 4 127 128 134 133
          4 128 127 91 92 4
          134 128 92 98 4 133
          134 98 97 4 127 133
          97 91 4 97 98 92
          91 6 4 128 129 135
          134 4 129 128 92 93
          4 135 129 93 99 4
          134 135 99 98 4 128
          134 98 92 4 98 99
          93 92 6 4 129 130
          136 135 4 130 129 93
          94 4 136 130 94 100
          4 135 136 100 99 4
          129 135 99 93 4 99
          100 94 93 6 4 130
          131 137 136 4 131 130
          94 95 4 137 131 95
          101 4 136 137 101 100
          4 130 136 100 94 4
          100 101 95 94 6 4
          132 133 139 138 4 133
          132 96 97 4 139 133
          97 103 4 138 139 103
          102 4 132 138 102 96
          4 102 103 97 96 6
          4 133 134 140 139 4
          134 133 97 98 4 140
          134 98 104 4 139 140
          104 103 4 133 139 103
          97 4 103 104 98 97
          6 4 134 135 141 140
          4 135 134 98 99 4
          141 135 99 105 4 140
          141 105 104 4 134 140
          104 98 4 104 105 99
          98 6 4 135 136 142
          141 4 136 135 99 100
          4 142 136 100 106 4
          141 142 106 105 4 135
          141 105 99 4 105 106
          100 99 6 4 136 137
          143 142 4 137 136 100
          101 4 143 137 101 107
          4 142 143 107 106 4
          136 142 106 100 4 106
          107 101 100 6 4 144
          145 151 150 4 145 144
          108 109 4 151 145 109
          115 4 150 151 115 114
          4 144 150 114 108 4
          114 115 109 108 6 4
          145 146 152 151 4 146
          145 109 110 4 152 146
          110 116 4 151 152 116
          115 4 145 151 115 109
          4 115 116 110 109 6
          4 146 147 153 152 4
          147 146 110 111 4 153
          147 111 117 4 152 153
          117 116 4 146 152 116
          110 4 116 117 111 110
          6 4 147 148 154 153
          4 148 147 111 112 4
          154 148 112 118 4 153
          154 118 117 4 147 153
          117 111 4 117 118 112
          111 6 4 148 149 155
          154 4 149 148 112 113
          4 155 149 113 119 4
          154 155 119 118 4 148
          154 118 112 4 118 119
          113 112 6 4 150 151
          157 156 4 151 150 114
          115 4 157 151 115 121
          4 156 157 121 120 4
          150 156 120 114 4 120
          121 115 114 6 4 151
          152 158 157 4 152 151
          115 116 4 158 152 116
          122 4 157 158 122 121
          4 151 157 121 115 4
          121 122 116 115 6 4
          152 153 159 158 4 153
          152 116 117 4 159 153
          117 123 4 158 159 123
          122 4 152 158 122 116
          4 122 123 117 116 6
          4 153 154 160 159 4
          154 153 117 118 4 160
          154 118 124 4 159 160
          124 123 4 153 159 123
          117 4 123 124 118 117
          6 4 154 155 161 160
          4 155 154 118 119 4
          161 155 119 125 4 160