<?xml version="1.0"?>
<VTKFile type="UnstructuredGrid" version="0.1" byte_order="LittleEndian" header_type="UInt32" compressor="vtkZLibDataCompressor">
  <UnstructuredGrid>
    <Piece NumberOfPoints="25" NumberOfCells="5">
      <PointData>
        <DataArray type="Float64" Name="NODE" NumberOfComponents="3" format="ascii" RangeMin="0" RangeMax="1.7320508075688772">
          0 0 0 0.4 0 0
          1 0 0 0 0.4 0
          0.4 0.4 0 0.4 0.6000000000000001 0
          1 0.6000000000000001 0 0 1 0
          0.4 1 0 1 1 0
          0.4 0 0.4 1 0 0.4
          0.4 0.4 0.4 0.4 0.6000000000000001 0.4
          1 0.6000000000000001 0.4 0 0 1
          0.4 0 1 1 0 1
          0 0.4 1 0.4 0.4 1
          0.4 0.6000000000000001 1 1 0.6000000000000001 1
          0 1 1 0.4 1 1
          1 1 1
          <InformationKey name="L2_NORM_RANGE" location="vtkDataArray" length="2">
            <Value index="0">
              0
            </Value>
            <Value index="1">
              1.7320508076
            </Value>
          </InformationKey>
        </DataArray>
      </PointData>
      <CellData>
      </CellData>
      <Points>
        <DataArray type="Float64" Name="Points" NumberOfComponents="3" format="ascii" RangeMin="0" RangeMax="1.7320508075688772">
          0 0 0 0.4 0 0
          1 0 0 0 0.4 0
          0.4 0.4 0 0.4 0.6000000000000001 0
          1 0.6000000000000001 0 0 1 0
          0.4 1 0 1 1 0
          0.4 0 0.4 1 0 0.4
          0.4 0.4 0.4 0.4 0.6000000000000001 0.4
          1 0.6000000000000001 0.4 0 0 1
          0.4 0 1 1 0 1
          0 0.4 1 0.4 0.4 1
          0.4 0.6000000000000001 1 1 0.6000000000000001 1
          0 1 1 0.4 1 1
          1 1 1
          <InformationKey name="L2_NORM_RANGE" location="vtkDataArray" length="2">
            <Value index="0">
              0
            </Value>
            <Value index="1">
              1.7320508076
            </Value>
          </InformationKey>
        </DataArray>
      </Points>
      <Cells>
        <DataArray type="Int32" Name="connectivity" format="ascii" RangeMin="0" RangeMax="24">
          5 6 8 9 13 14
          20 21 23 24 10 11
          12 13 14 16 17 19
          20 21 1 2 4 5
          6 10 11 12 13 14
          3 4 5 7 8 12
          13 18 19 20 22 23
          0 1 3 4 10 12
          15 16 18 19
        </DataArray>
        <DataArray type="Int32" Name="offsets" format="ascii" RangeMin="10" RangeMax="52">
          10 20 30 42 52
        </DataArray>
        <DataArray type="UInt8" Name="types" format="ascii" RangeMin="42" RangeMax="42">
          42 42 42 42 42
        </DataArray>
        <DataArray type="Int32" IdType="1" Name="faces" format="ascii" RangeMin="0" RangeMax="24">
          7 4 5 8 9 6
          4 5 6 14 13 4
          13 14 21 20 4 8
          23 24 9 4 20 21
          24 23 5 5 13 20
          23 8 5 6 9 24
          21 14 7 5 10 12
          13 14 11 4 10 11
          17 16 4 12 19 20
          13 4 11 14 21 17
          4 13 20 21 14 5
          16 17 21 20 19 4
          10 16 19 12 7 5
          1 4 5 6 2 4
          1 2 11 10 4 4
          12 13 5 4 2 6
          14 11 4 5 13 14
          6 5 10 11 14 13
          12 4 1 10 12 4
          8 4 4 5 13 12
          4 12 13 20 19 4
          3 18 22 7 5 3
          7 8 5 4 5 3
          4 12 19 18 5 5
          8 23 20 13 4 7
          22 23 8 5 18 19
          20 23 22 7 4 0
          3 4 1 5 0 1
          10 16 15 4 0 15
          18 3 4 1 4 12
          10 5 3 18 19 12
          4 4 10 12 19 16
          4 15 16 19 18
        </DataArray>
        <DataArray type="Int32" IdType="1" Name="faceoffsets" format="ascii" RangeMin="38" RangeMax="197">
          38 76 114 159 197
        </DataArray>
      </Cells>
    </Piece>
  </UnstructuredGrid>
</VTKFile>
