<?xml version='1.0'?>
<!-- case='ws' region='region0' time='0' index='0' -->
<VTKFile type='UnstructuredGrid' version='0.1' byte_order='LittleEndian' header_type='UInt64'>
  <UnstructuredGrid>
    <FieldData>
      <DataArray type='Float32' Name='TimeValue' NumberOfTuples='1' format='ascii'>
0
      </DataArray>
    </FieldData>
    <Piece NumberOfPoints='1645' NumberOfCells='1074'>
      <Points>
        <DataArray type='Float32' Name='Points' NumberOfComponents='3' format='ascii'>
-5 -4 0 -2.50074 -4 0
0.00788442 -4 0 2.52029 -4 0
5.02074 -4 0 7.51652 -4 0
10.0113 -4 0 12.5059 -4 0
15 -4 0 -5 -2.00356 0
-2.50967 -2.01172 0 0.00375186 -2.02647 0
2.54006 -2.01756 0 5.02917 -2.00502 0
7.51916 -2.00112 0 10.0122 -2.00028 0
12.5062 -2.00006 0 15 -2 0
-5 0.000297822 0 -2.52056 0.000279662 0
0 0 0 2.56914 0.000178159 0
5.03668 0.000280784 0 7.52138 0.000215505 0
10.013 0.000118888 0 12.5064 6.63332e-05 0
15 4.31506e-05 0 -5 2.00397 0
-2.5097 2.01217 0 0.00389282 2.02651 0
2.5411 2.01803 0 5.02963 2.00547 0
7.51936 2.00142 0 10.0123 2.00045 0
12.5062 2.00015 0 15 2.00007 0
-5 4 0 -2.50057 4 0
0.00867427 4 0 2.52175 4 0
5.02147 4 0 7.5169 4 0
10.0115 4 0 12.5059 4 0
15 4 0 -5 -4 2.00603
-2.49976 -4 2.00847 0.00679914 -4 2.01046
2.51621 -4 2.00879 5.01748 -4 2.00563
7.51436 -4 2.00294 10.01 -4 2.00153
12.5053 -4 2.00082 15 -4 2.00052
-5 -2.00271 2.00809 -2.50521 -2.00827 2.01389
0.00531045 -2.01856 2.0226 2.52782 -2.01201 2.01654
5.02349 -2.00368 2.00788 7.51649 -2.00088 2.00336
10.0108 -2.00022 2.00166 12.5055 -2.00004 2.00086
15 -2 2.00053 -5 0.000332729 2.0095
-2.51335 0.000393519 2.02003 -0.00224822 0.000380017 2.04017
2.54494 0.00045442 2.02699 5.02846 0.000355172 2.00973
7.51831 0.000220452 2.00373 10.0114 0.000117095 2.00177
12.5057 6.42452e-05 2.00089 15 4.15591e-05 2.00054
-5 2.00317 2.00816 -2.50523 2.00867 2.0141
0.00585464 2.01877 2.02345 2.52844 2.01285 2.01731
5.02383 2.00423 2.00801 7.51666 2.00118 2.00339
10.0109 2.00038 2.00168 12.5055 2.00013 2.00086
15 2.00006 2.00053 -5 4 2.0061
-2.49955 4 2.00864 0.00770472 4 2.01073
2.51734 4 2.00907 5.01809 4 2.00576
7.51468 4 2.003 10.0102 4 2.00155
12.5053 4 2.00082 15 4 2.00052
-5 -4 4.00733 -2.4985 -4 4.00946
0.00567943 -4 4.0108 2.51106 -4 4.00979
5.01265 -4 4.00649 7.51117 -4 4.00375
10.0081 -4 4.00205 12.5044 -4 4.00112
15 -4 4.00072 -5 -2.00124 4.00887
-2.49983 -2.003 4.01257 0.00598631 -2.00489 4.01552
2.51425 -2.00361 4.01349 5.01521 -2.00156 4.00836
7.5123 -2.00046 4.00434 10.0086 -2.00011 4.00223
12.5045 -2.00002 4.00118 15 -1.99999 4.00074
-5 0.000324183 4.00999 -2.50109 0.000418697 4.01487
0.00643347 0.000490622 4.01983 2.5177 0.000549202 4.01696
5.01725 0.000360833 4.00972 7.51318 0.000194344 4.00476
10.0089 0.000104148 4.00235 12.5046 5.78215e-05 4.00121
15 3.78789e-05 4.00075 -5 2.00169 4.00894
-2.49978 2.00374 4.01298 0.00645251 2.00565 4.0159
2.51472 2.00447 4.01382 5.01547 2.00209 4.00848
7.51244 2.00074 4.00438 10.0087 2.00026 4.00224
12.5046 2.0001 4.00118 15 2.00005 4.00074
-5 4 4.00734 -2.49836 4 4.00937
0.00645613 4 4.01125 2.51175 4 4.01007
5.01306 4 4.00663 7.51141 4 4.00381
10.0083 4 4.00207 12.5044 4 4.00113
15 4 4.00073 -5 -4 6.0048
-2.49813 -4 6.00584 0.00464119 -4 6.00672
2.5075 -4 6.00581 5.00913 -4 6.00408
7.50851 -4 6.00248 10.0065 -4 6.0014
12.5036 -4 6.00078 15 -4 6.00051
-5 -2.00041 6.00554 -2.49825 -2.00082 6.00725
0.00489652 -2.00114 6.00851 2.50831 -2.00092 6.00743
5.00996 -2.00046 6.00488 7.50897 -2.00015 6.00279
10.0067 -2.00003 6.00151 12.5036 -2 6.00082
15 -1.99999 6.00052 -5 0.000238506 6.00602
-2.49837 0.000325719 6.00812 0.00520128 0.000378039 6.00975
2.5091 0.000347863 6.00848 5.01064 0.000237401 6.00542
7.50933 0.000144012 6.003 10.0068 8.32992e-05 6.00158
12.5037 4.88404e-05 6.00084 15 3.32214e-05 6.00053
-5 2.00074 6.00552 -2.4982 2.00119 6.00711
0.00531458 2.00175 6.00872 2.50861 2.00144 6.00754
5.01015 2.0008 6.00494 7.50908 2.00036 6.00282
10.0067 2.00015 6.00152 12.5037 2.00007 6.00082
15 2.00004 6.00052 -5 4 6.00477
-2.49786 4 6.00574 0.00511639 4 6.00648
2.50796 4 6.00591 5.00942 4 6.00415
7.50869 4 6.00252 10.0066 4 6.00141
12.5036 4 6.00079 15 4 6.00051
-5 -4 8 -2.49796 -4 8
0.00427706 -4 8 2.50635 -4 8
5.00747 -4 8 7.50712 -4 8
10.0056 -4 8 12.5031 -4 8
15 -4 8 -5 -2.00012 8
-2.49797 -2.00022 8 0.00440592 -2.0003 8
2.50665 -2.00024 8 5.00777 -2.00012 8
7.50731 -2.00004 8 10.0056 -2 8
12.5031 -1.99999 8 15 -1.99999 8
-5 0.000179651 8 -2.49795 0.00021335 8
0.00456368 0.000240475 8 2.50694 0.000221888 8
5.00804 0.000166612 8 7.50748 0.00011053 8
10.0057 6.85613e-05 8 12.5032 4.2411e-05 8
15 2.99209e-05 8 -5 2.00037 8
-2.49789 2.00051 8 0.00459936 2.00065 8
2.50683 2.00056 8 5.0079 2.00036 8
7.50739 2.00019 8 10.0057 2.0001 8
12.5032 2.00005 8 15 2.00003 8
-5 4 8 -2.4978 4 8
0.00455478 4 8 2.50663 4 8
5.00768 4 8 7.50726 4 8
10.0056 4 8 12.5031 4 8
15 4 8 -1.27626 -1.02295 1.02516
1.32574 -1.04315 1.03518 -1.27648 1.02356 1.02535
1.32615 1.04362 1.03524 -1.26017 -2.02012 0
-2.51757 -1.01025 0 -2.50842 -2.01086 1.0097
1.28336 -2.0258 0 -0.0286786 -1.03996 0
0.00367967 -2.02575 1.0186 2.56296 -1.01949 0
2.53674 -2.01675 1.01205 -1.27456 0.000153583 0
-2.51761 1.01079 0 -2.51999 0.000329516 1.01618
1.30759 7.32225e-06 0 -0.028632 1.04018 0
0 0 1 2.56328 1.01994 0
2.56835 0.000241113 1.02415 -1.26025 2.02063 0
-2.5085 2.01125 1.00976 1.28502 2.02575 0
0.00399596 2.02625 1.01914 2.53761 2.01724 1.01227
-1.25382 -2.01445 2.01928 -2.51056 -1.00654 2.01784
1.27165 -2.01832 2.02198 0.00121078 -1.02193 2.03543
2.53954 -1.0118 2.0238 -1.26706 0.000405662 2.03164
-2.5106 1.00725 2.01797 1.29518 0.000416755 2.03928
0.00124766 1.02271 2.03579 2.53883 1.01255 2.02362
-1.25396 2.01447 2.01968 1.27292 2.01792 2.02225
-1.25859 -2.01961 1.01503 1.27985 -2.02489 1.01679
-2.51655 -1.00934 1.01375 -0.0274449 -1.04789 1.04311
-1.28324 0.000229617 1.03439 -1.26245 -1.01388 2.02759
2.5582 -1.01839 1.01864 1.36878 1.68108e-05 1.05823
1.28498 -1.02053 2.03383 -2.51662 1.00995 1.01382
-0.0281939 1.0487 1.04348 -1.25892 2.01974 1.01497
-1.26258 1.01471 2.02788 2.55837 1.01892 1.01867
1.28193 2.02513 1.01726 1.28522 1.02125 2.03381
-1.27769 -1.02443 0 -1.27775 1.02487 0
1.32748 -1.03893 0 1.32769 1.03919 0
0.644186 0.5 0.55148 -0.6677 -0.53264 0.529126
0.644535 -0.5 0.551138 -0.66774 0.532821 0.529162
0 -0.5 0 -0.638234 5.16801e-05 0
0 0.5 0 0 2.38243e-06 0.606895
-0.658477 -1.0358 1.03386 -1.28379 -0.516965 1.03116
-1.27783 -1.02435 0.514738 0.655321 -1.04548 1.04282
1.38137 -0.554143 1.05934 1.32828 -1.03995 0.511967
-1.28389 0.517467 1.03126 -0.658842 1.03638 1.03413
-1.27794 1.02486 0.514819 1.38144 0.554258 1.05938
0.656033 1.0462 1.04338 1.32853 1.04028 0.511964
-0.0274652 -1.04076 0.521165 -0.658888 -1.0354 0
0.655208 -1.02772 0 -1.27694 0.000176494 0.526729
-1.28108 -0.518134 0 -1.28111 0.518475 0
1.30733 -3.44377e-05 0.570961 1.36609 -0.548202 0
1.36612 0.548255 0 -0.0274604 1.04109 0.521172
-0.65892 1.03573 0 0.655342 1.02795 0
0 -0.5 1 -0.671237 0.000112012 1.05226
0.645588 -0.000333244 1 0 0.5 1
0.659985 -1.02945 0.527706 -1.28222 0.518317 0.519933
0 0.5 0.498089 1.36532 0.546214 0.510747
0.660143 1.02975 0.527758 0.603333 0.5 1
-0.659855 -1.03629 0.518511 -1.28217 -0.517924 0.519894
-0.677267 -0.533223 1.04689 0 -0.5 0.498089
-0.642243 6.24515e-05 0.557826 1.36528 -0.546168 0.510729
0.603333 -0.5 1 -0.659965 1.0367 0.518594
-0.677389 0.533527 1.047 0.604603 0.5 0
-0.666068 -0.532697 0 -0.666083 0.532846 0
0.604603 -0.5 0 -1.2507 -3.01057 1.00867
1.26717 -3.01306 1.00939 0.650296 -1.53218 0.516335
3.7917 -1.0072 1.00947 3.79189 1.00781 1.00951
1.27018 3.0126 1.00963 -1.25248 -1.00698 3.02217
1.26953 -1.00873 3.02536 -1.25243 1.00791 3.02239
1.26991 1.00987 3.02511 -0.641228 -1.53022 0.513715
-0.658532 -0.521758 1.54451 1.96001 -0.523056 0.51865
0.65576 -0.533042 1.55004 -0.32212 0.264342 0.341367
-0.658697 0.522326 1.54468 1.96009 0.523294 0.518661
0.651184 1.53307 0.516433 0.656254 0.533225 1.55018
1.04438 0.806348 0.770407 1 0.236724 0.394358
1 0.236242 0.760188 0.306971 0.778988 0.786072
-0.341706 -0.265405 0.798136 -0.365767 -0.798671 0.77977
1.04437 -0.806134 0.770455 1 -0.236754 0.394329
0.306913 -0.778851 0.785839 1 -0.236583 0.75993
1.04039 -0.799145 0.211572 -0.34172 0.265469 0.798147
-1.24813 -4 0 -2.50391 -3.0079 0
-2.50048 -4 1.00541 1.26523 -4 0
0.00757317 -3.01367 0 0.00743693 -4 1.00678
2.5261 -3.0098 0 2.51875 -4 1.00542
-0.632772 -2.02584 0 0.644621 -2.02643 0
-0.003218 -1.5311 0 0.00372734 -2.02668 0.510778
3.78498 -2.00949 0 5.03428 -1.00374 0
5.02711 -2.00459 1.00476 0 -0.23184 0
-0.30927 1.47015e-05 0 0 0.23184 0
0 2.10265e-06 0.479595 3.80106 0.000277479 0
2.56953 -0.513081 0 1.94998 8.32776e-05 0
2.56965 0.513466 0 2.56961 0.000194458 0.515715
5.03449 1.00428 0 5.03388 0.000308426 1.00602
0.00787345 3.01396 0 -0.00306631 1.53153 0
0.646572 2.02833 0 0.00345827 2.02861 0.511748
3.78566 2.00995 0 2.52771 3.01005 0
5.02752 2.00507 1.00483 1.26701 4 0
0.00825393 4 1.00682 2.52012 4 1.00557
-1.24756 -4 2.00977 -2.50162 -3.00577 2.01084
1.26219 -4 2.01004 0.00633747 -3.0107 2.01431
2.51971 -3.00692 2.01129 -2.50194 -2.00524 3.01407
0.00604753 -2.01023 3.01985 3.77622 -2.00664 2.01138
2.51954 -2.00673 3.0157 5.02695 -1.00267 2.00917
-2.50519 0.00041898 3.01786 0.00587403 0.00052028 3.02839
-0.0278645 0.000182051 1.54852 -0.00150977 -0.515945 2.04009
-0.64033 0.00038709 2.03761 0.650031 0.000371918 2.04012
-0.0015373 0.516731 2.04025 3.78567 0.000408365 2.01581
2.5273 0.000643948 3.0223 5.02708 1.00335 2.00922
-2.50188 2.00585 3.01436 0.00741186 3.00989 2.01462
0.00664863 2.01097 3.0203 3.77666 2.0073 2.01165
2.5209 3.0072 2.01171 2.52013 2.00795 3.01637
1.26361 4 2.01037 -1.24787 -2.00411 4.01438
-2.5007 -1.00208 4.01418 1.26083 -2.00463 4.01516
0.00627211 -1.00386 4.01855 2.51658 -1.00264 4.01593
-1.24898 0.000461344 4.0179 -2.50067 1.00289 4.01436
1.2638 0.000526386 4.01946 0.00647805 1.00479 4.01871
2.51681 1.00377 4.01611 -1.24767 2.00489 4.01487
1.2615 2.00548 4.01553 -1.26623 -1.52365 1.02011
[...]
      <CellData>
        <DataArray type='Float32' Name='cellLevel' format='ascii'>
0 1 1 1 0 0
0 0 1 1 2 1
1 0 0 0 1 2
2 1 0 0 0 0
1 1 1 0 0 0
0 0 1 1 1 0
0 0 0 1 1 2
1 0 0 0 0 1
1 2 1 0 0 0
0 0 1 1 1 0
0 0 0 0 1 1
0 0 0 0 0 0
1 1 0 0 0 0
0 0 1 1 0 0
0 0 0 0 0 1
0 0 0 0 0 0
0 0 0 0 0 0
0 0 0 0 0 0
0 0 0 0 0 0
0 0 0 0 0 0
0 0 0 0 0 0
0 2 2 3 1 2
2 2 2 2 2 2
3 2 3 1 2 2
2 1 2 2 2 2
3 2 2 2 3 3
3 3 3 3 2 3
2 3 3 2 2 3
3 3 3 3 3 2
2 3 3 2 3 2
1 1 1 1 1 1
2 1 2 1 1 1
2 1 3 2 3 2
2 3 3 1 2 1
1 1 1 1 1 1
1 1 1 1 1 1
1 1 1 1 1 1
2 1 2 1 1 1
1 1 2 2 1 1
1 1 2 1 2 1
1 1 1 2 2 2
1 1 1 1 2 2
2 2 2 2 2 2
3 2 2 3 2 2
3 2 3 2 2 3
3 3 3 3 3 3
3 3 3 3 3 3
3 3 3 2 3 2
2 2 3 2 3 3
2 2 3 2 3 3
3 2 2 3 2 3
3 3 3 3 3 3
3 3 3 3 3 3
3 3 3 3 3 3
3 3 3 3 3 3
3 3 3 3 3 3
3 3 3 3 3 3
3 3 3 3 3 3
3 3 3 3 3 3
3 3 3 3 3 3
3 3 3 3 3 3
3 3 3 3 3 3
3 3 3 3 3 3
3 3 3 2 2 2
2 2 2 2 2 2
2 2 2 3 2 2
2 2 2 2 2 2
2 2 2 2 2 2
2 2 2 2 2 2
2 2 3 3 3 3
3 3 3 3 3 3
3 3 3 3 3 3
3 3 3 3 3 3
3 3 3 3 3 3
3 3 3 3 3 3
3 3 3 3 3 3
3 3 3 3 3 3
3 3 3 1 1 1
1 1 1 1 1 1
1 1 1 1 1 2
2 2 2 2 2 2
2 2 2 2 2 2
2 1 1 1 1 1
1 1 1 1 1 1
1 1 1 1 1 1
1 1 1 1 2 2
2 2 2 2 2 1
1 1 1 1 1 1
2 2 2 2 2 2
2 1 1 1 1 1
1 1 1 1 1 1
1 1 1 1 1 1
1 1 1 1 2 2
2 2 2 2 2 3
3 3 3 3 3 3
2 2 2 2 2 2
2 2 2 2 2 2
2 2 2 2 2 2
2 2 2 2 2 2
2 2 2 2 2 2
2 2 2 2 2 2
2 2 2 2 2 2
2 2 2 2 2 2
2 2 2 2 2 2
2 2 3 3 3 3
3 3 3 3 3 3
3 3 3 3 3 3
3 3 3 3 3 3
3 3 3 3 3 3
3 3 3 3 3 3
3 3 3 3 3 3
3 3 3 3 3 3
3 3 3 3 3 3
3 3 3 3 3 3
3 3 3 3 3 3
3 3 3 3 3 3
2 2 2 2 2 2
2 2 2 2 2 2
2 2 2 2 2 2
2 2 2 2 2 2
2 2 2 2 2 2
2 2 2 2 2 2
2 2 2 2 2 2
3 3 3 3 3 3
3 3 3 3 3 3
3 3 3 3 3 3
3 3 3 3 3 3
3 3 3 3 3 3
3 3 3 3 3 3
3 3 3 3 3 3
3 3 3 3 3 3
3 3 3 3 3 3
3 3 3 3 3 3
3 3 3 3 3 3
3 3 3 3 3 3
3 3 3 3 3 3
3 3 3 3 3 3
3 3 3 3 3 3
3 3 3 3 3 3
3 3 3 3 3 3
3 3 3 3 3 3
3 3 3 3 3 3
3 3 3 3 3 1
1 1 1 1 1 1
1 1 1 1 1 1
1 1 1 1 1 1
1 1 1 1 1 1
1 1 1 1 1 1
1 1 1 1 1 1
1 1 1 1 1 1
1 1 1 1 1 1
1 1 1 1 1 1
1 1 1 1 1 1
1 1 1 1 1 1
1 1 1 1 1 1
1 1 1 1 1 1
1 1 1 1 1 1
1 1 1 1 1 1
1 1 1 1 1 1
1 1 1 1 1 1
1 1 3 3 3 3
3 3 3 3 3 3
3 3 3 3 2 2
2 2 2 2 2 2
2 2 2 2 2 2
2 2 2 2 2 2
2 2 2 2 2 2
2 2 2 2 2 2
2 2 2 2 2 2
2 2 2 2 2 2
2 2 2 2 2 3
3 3 3 3 3 3
3 3 3 3 3 3
3 3 3 3 3 3
3 3 3 3 3 3
3 3 3 3 3 3
3 3 3 3 3 3
3 3 3 3 3 3
3 3 3 3 3 3
        </DataArray>
      </CellData>
      <PointData>
        <DataArray type='Float32' Name='cellLevel' format='ascii'>
0 0.666803 1 1 0.666892 0
0 0 0 0.666749 0.856558 1.85511
1.40558 0.856804 0.400672 0 0 0
1 1.66548 3 2 1 0.666712
0 0 0 0.666755 0.856549 1.66405
1.40534 0.856814 0.400663 0 0 0
0 0.666798 1 1 0.666898 0
0 0 0 0 0.666395 1
1 0.666445 0 0 0 0
0.666418 0.856809 1.85589 1.22619 0.768853 0.22281
0 0 0 1 1.40184 2.39926
1.66618 0.85655 0.400494 0 0 0
0.666413 0.856817 1.66602 1.40219 0.768854 0.222811
0 0 0 0 0.666373 1
1 0.666452 0 0 0 0
0 0.666612 1 0.856764 0.400605 0
0 0 0 0.400179 0.769161 1
0.856798 0.400833 0 0 0 0
0.666375 0.856817 1 0.856499 0.400897 0
0 0 0 0.400184 0.6666 0.933173
0.856803 0.400859 0 0 0 0
0 0.400098 0.857011 0.856755 0.400638 0
0 0 0 0 0.400082 0.666563
0.400291 0 0 0 0 0
0 0.400149 0.666587 0.400355 0 0
0 0 0 0 0.400128 0.666459
0.400347 0 0 0 0 0
0 0.222497 0.545412 0.40038 0 0
0 0 0 0 0 0.399863
0.400334 0 0 0 0 0
0 0 0 0 0 0
0 0 0 0 0 0
0 0 0 0 0 0
0 0 0 0 0 0
0 0 0 0 0 0
0 0 0 0 0 0
0 0 0 0 0 0
0 0 0 1.85524 2.66362 1.85522
2.66341 1.40405 1.40231 0.909883 1.85433 2.84721
1.93306 1.85474 1.40309 2 1.40229 1.66547
3 2.8472 3 1.85478 1.85427 1.40398
0.909884 1.66493 1.66452 1.4029 1.54586 1.22494
1.66562 2.22596 1.54681 1.8553 1.22494 2.40402
2.22604 1.66687 1.4017 1.66628 1.54651 1.85507
1.40133 2.84847 2 1.76829 1.7669 2.84508
2.18361 1.40132 2.75969 1.40219 1.76826 1.76691
1.66517 2.22975 1.85498 1.85497 2.85124 2.85132
3 2.66337 3 2.66337 3 2.66959
3 3 2.40821 2 1.9083 2.92888
2.83449 2.8513 2 2.40806 1.90829 2.83449
2.84942 2.85136 2.85065 2.41307 3 2
2 2 3 3 3 2.85064
2.41301 3 3 2.66261 3 3
3 2 3 3 3 3
2.40845 2 2.65841 3 2.67549 3
3 2.40838 2.6584 3 2.65897 2.65896
3 1.22216 1.4007 2.66308 1.22494 1.22491
1 1.40107 1.54518 1.40109 1.66598 2
2.40743 2.66334 3 3 2.40743 2.66333
2.66312 3 3 3 3 3
3 3 3 3 3 3
3 3 1 0.757992 0.756826 1
1.39974 1 1 1 1.70992 2
2.40019 1.90902 1 1 0.910128 3
3 3 3 1.66607 2 2.66518
2 2 1 1 1 2.40035
1.70661 1.76923 1 1 0.910128 1
1 1 1 0.772631 1 1.40089
1 0.91038 1.40104 1 1 0.910064
1 1.66501 2.84924 2.3999 2 2.66232
2.39992 1 1.40205 0.910066 0.91037 1
1.40096 1 1 1.22471 1 1
0.910291 1 1 0.910067 1 0.910287
1 1 0.910069 0.899497 1 1.77243
1.90938 2.22909 2.23299 2.40857 2.89225 2.90182
2.90456 1.90936 2.23288 2.22885 2.40828 2.9018
2.8921 2.90462 1.5309 1.75778 1.90844 2.40646
1.90004 2 2.40066 1.90831 2.4117 3
3 3 3 3 3 3
3 3 1.90833 2.41152 1.90816 2.40171
1.90815 1.76985 2.40624 2.22463 1.74578 2.66286
2 2.40154 2 1.90899 1.90899 2.6657
2.40428 2.40429 2.54447 2 2.40146 2.74735
3 2.90378 3 2.89549 2.89549 3
3 2.8912 2.90376 3 2.90615 3
3 3 3 3 3 3
2.77165 2.76449 3 2.77453 3 3
3 3 3 3 2.77453 2.76448
2.76343 3 3 2.7702 2.75401 3
3 3 3 3 3 2.53289
2.769 3 3 3 3 3
3 3 3 3 3 3
3 3 2.75 3 3 3
3 3 3 3 3 3
3 3 3 3 3 3
2.76206 2.77633 2.76205 3 3 3
3 3 0.841126 1.54475 1.22372 1.80509
1 2 1.22379 1 1.8402 2.39999
2.40436 2.54236 3 3 3 1
1.40139 1 2 3 3 1
1 1 2 1 1 1
1.80279 1.224 1.22417 1 1.66573 1.40098
1 2 1.225 1.66539 1 2.66286
1 1.66572 1.22404 1 2 1.40198
1.40105 1 2.66282 2 2.80377 3
3 3 2.23454 2 2.84831 2.40746
3 3 2.40761 3 2.40233 2.66645
3 3 3 3 2.76454 2.66495
3 3 3 3 3 2.83592
3 3 2.40009 2 2.23453 2.84827
3 2.40746 2.40231 3 3 3
2.40395 2.3988 3 3 2.6649 2.66336
3 3 3 3 3 3
3 3 3 3 3 3
3 3 2.83607 3 3 2.83765
3 3 3 3 3 3
3 3 3 3 3 2.83765
3 1 1 1 1 1.40142
2.66248 1 1.40315 1.40306 2 3
2.66285 2.66236 2.66285 3 3 3
2 2.22501 2 2 2 3
3 3 3 3 3 3
2 1.89862 1.89814 2 1.77014 1.7712
2 1.77124 1.77072 2 1.74762 2.53919
2.5387 3 1.77241 1.77258 1.90924 1.9095
1.77127 1.89875 1.77132 2 1.77105 2
2.90654 2.76136 2.53618 2.90798 2.75576 2.75574
2.76797 3 2.77143 3 3 3
2.76928 3 2.76926 2.5353 2.74761 2.53051
3 3 3 2.53049 2.7476 3
3 3 2.90292 2.74938 2.90292 2.74451
2.77275 2.77266 2.74464 2.50118 2.90646 2.89416
3 2.76712 2 1.84127 2.22659 2
2 2.80611 2.80242 2 2 2.79989
3 2 2 1.83849 2 2.83558
2.80241 2 2 1.8385 2 2.8355
2.82428 2 1.80473 2 2.79952 3
2.83891 3 2.83512 3 3 2.80588
3 3 3 3 3 3
3 2.8351 3 3 3 3
3 3 3 1 1 2
2 1 1 1 2 1
2 1 1 1 2 3
2 2 2 2 2 2
2 2 3 3 3 3
3 3 3 3 3 3
2 2 2 2 2 2
3 3 3 3 3 3
3 3 3 3 3 3
3 3 3 3 3 0.714306
1 0.737767 1.71138 1.75677 1.53155 1
1 1 1.75472 2 1.75471 1.76982
2 0.714259 0.737718 0.758012 1.70977 1.75675
1.71131 1.53126 1 0.756815 0.757409 1
1 0.749976 1 1.7719 1.53206 1.49992
1.53253 0.772229 1 1 1.77101 1.53107
1.74962 1.53108 2 0.772008 0.749957 0.772652
1.74858 1.77189 1.53165 1.77235 1.74898 0.772228
1 0.757404 1 1 1 0.772505
1 1 0.910363 0.749626 0.531064 0.749517
0.531076 0.531115 0.910566 0.74964 0.910371 0.71332
1 1.75052 2.53514 2.50364 1.7505 1.77236
2.50362 1.52974 1.71518 3 2.90406 2.71297
3 2.75853 1.71626 1.74852 1.77169 1.52971
1.71516 1.77063 2 1.77063 3 3
2.90407 2.71305 3 1.71623 1.75129 1.53076
1.75774 1.74771 1.77169 1.74855 1.53152 1.53104
1.50098 1.53172 2 1.77226 1.531 1.50094
2.74507 2.77193 2.53117 2.53116 2 2
1.53166 1.7726 1.77199 2.77303 1.77257 1.50225
2.75171 1.90991 2.7473 2.76995 1.77256 1.50225
2 2.53544 2.53345 2.49805 2.75854 2.7155
2.90621 3 3 2.7155 2.76343 2.77163
3 2.75402 2.90933 2.75176 2.77244 2.75051
2.53281 2.76893 2.53585 2.75175 2.75052 2.77332
2.53307 2.75573 3 3 3 3
2.74999 2.53307 2.7557 3 3 3
3 3 2.74482 2.74521 2.76863 2.76849
1.53034 1.53041 1.53034 1.53036 1.53126 1.74853
1.53072 1.53144 1.74783 1.77088 1.53073 1.74851
1.77092 1.74782 1.77181 2.76908 2.76639 2.76833
2.76617 3 3 2.53532 2.76832 2.76906
2.76639 2.76618 3 3 2.5296 2.7052
1.77019 1.75476 1.75476 2.76743 2.75044 2.75043
1.49962 1.49929 1.77168 1.77063 1.74805 1.74712
1.77063 3 2.76779 2.76777 3 1.77167
1.49892 2.5331 2.49541 2.53295 2.53073 2.53288
2.53067 2.53267 2.70565 2.53078 2.74432 2.53217
2.5329 2.7528 2.53285 2.75279 2.52367 2.76979
2.52365 2.53388 2.76716 2.74516 2.77216 2.74514
2.77211 2.50147 2.9064 2.74273 2.76959 2.77148
2.53248 2.53473 2.49802 0.808689 1 1
1.83827 1.83937 1.80864 2.80153 1.83951 1.80955
1.83827 0.808651 1 1.83936 2 1.8086
2 2 1.83832 1.80954 1.81037 0.841138
1 1.80463 1.80618 0.841423 1 1
1.80785 1 1.80737 1 1 1.8415
2 1.84207 2 1.80706 0.840831 1
0.808548 1.80806 1.84095 2 2 2
2 1.80548 2.80119 2.80313 0.840833 1
0.808558 0.841432 1 0.808726 1 1
1.8071 2 3 2.83592 1.80956 2
1.80806 2 1.80604 2.8404 2.84102 2.80667
2.80809 2.83384 1.80693 1.84026 1.80838 3
3 1.84016 2 2.80532 2.80377 1.8095
1.84118 2 2.80591 2.83383 2 1.83948
1.80583 2.8067 2.80814 3 3 1.84035
1.80684 2 3 3 3 3
3 2.83701 3 2.80521 3 2.83602
3 2.83699 3 2.80156 3 3
2.80726 2.80205 3 3 2.84121 2.80132
2.84228 3 1.83832 1.81037 2 1.80751
1.84095 1.80635 2 2 2 1.80547
2.8012 2 1.80634 2 2 1.80703
2.8348 3 3 2.8129 2.8358 3
3 3 2.83391 3 2.80643 3
3 3 3 3 2.83914 2.82431
2.83882 2.80591 3 3 2.83478 3
2.81287 3 3 2.8358 2.8339 2.80641
3 3 2.8391 3 3 2.7983
2.84154 2.80564 2.84363 2.84692 2.80279 2.80513
1 1 1 1 1 1
1 1 1 2 1 2
2 3 2 2 2 3
3 3 3 3 3 3
2 3 3 3 3 1
1 1 1 1 1 1
1 1 1 1 1 1
1 1 3 3 2 2
2 2 2 2 2 3
3 3 3 3 3 3
1 0.757624 0.756759 1.75948 0.714539 0.75695
0.530529 1 0.756952 0.771878 0.7145 0.757622
0.530508 1 0.756736 1 0.77235 0.757208
0.73844 1.77247 0.500201 0.53075 1 2.77264
2.52934 2.74422 2.52934 1.77197 0.750135 0.530753
0.738383 1.53173 0.500185 0.772356 1 0.7572
0.757693 1 0.713676 0.757729 0.53117 0.499836
0.738163 0.772485 1 0.77256 0.749641 0.738162
0.77244 1 0.772491 0.499793 0.530974 0.91055
0.772561 0.531204 0.757853 0.71368 0.757727 0.713288
0.530709 0.713257 0.772151 0.530861 0.749354 0.530566
0.749321 0.771942 0.530723 0.749227 0.530581 0.749176
0.771942 0.530733 0.49932 0.749322 0.530599 0.530891
0.713274 2.53474 1.75924 1.91093 2.75851 1.53181
1.53214 2.5317 2.53385 2.49709 1.53204 2.53175
2.53412 2.4969 1.77234 1.53157 1.53189 1.7732
2.53573 2.49818 2.53353 2.53269 2.75853 2.77188
2.7724 2.77333 3 3 1.49814 1.53078
1.74784 1.53079 1.53024 1.49967 1.53132 1.74893
2.74497 2.74534 2.76896 2.76869 1.52946 1.70961
2.52986 2.70535 1.77125 1.49927 1.49899 2.7442
2.77276 2.74413 2.77276 1.5315 1.7486 1.53132
1.49948 1.53181 1.49972 2.53304 2.49589 2.5326
2.70572 2.53141 2.49458 2.76964 2.77142 1.80498
0.840941 1 0.809039 0.840601 1 0.809397
0.8406 0.809003 0.809403 0.840928 1 0.808989
0.841154 0.80887 1 0.80872 0.808936 0.808712
2.80048 1.84047 0.841158 0.808891 0.84144 1
1 0.808409 0.841506 1 0.808382 0.841324
1 1 0.808124 0.8414 1 0.80806
0.841328 1 0.808887 0.808106 0.841403 1
0.80806 0.841575 0.841514 0.8084 2.84114 3
2.80051 3 2.84114 2.80194 3 1.81113
1.84207 1.8063 1.84162 2 1.80884 1.84184
2 1.80583 1.84216 1.80856 1.80935 1.80689
2 1.84042 1.84153 1.80749 1.80762 2
1.80695 1.80784 1.84117 1.80789 2.84349 3
2.80483 2.80236 2.80572 2.84163 2.80318 2.84352
3 2.802 3 2.80742 2.84039 3
3 2.84122 2.80237 2.80171 2.80544 2.84235
2.84103 2.80465 2.80223 1 1 1
1 1 1 1 1 1
1 1 1 1 2 3
3
        </DataArray>
        <DataArray type='Float32' Name='pointLevel' format='ascii'>
0 0 0 0 0 0
0 0 0 0 0 0
0 0 0 0 0 0
0 0 0 0 0 0
0 0 0 0 0 0
0 0 0 0 0 0
0 0 0 0 0 0
0 0 0 0 0 0
0 0 0 0 0 0
0 0 0 0 0 0
0 0 0 0 0 0
0 0 0 0 0 0
0 0 0 0 0 0
0 0 0 0 0 0
0 0 0 0 0 0
0 0 0 0 0 0
0 0 0 0 0 0
0 0 0 0 0 0
0 0 0 0 0 0
0 0 0 0 0 0
0 0 0 0 0 0
0 0 0 0 0 0
0 0 0 0 0 0
0 0 0 0 0 0
0 0 0 0 0 0
0 0 0 0 0 0
0 0 0 0 0 0
0 0 0 0 0 0
0 0 0 0 0 0
0 0 0 0 0 0
0 0 0 0 0 0
0 0 0 0 0 0
0 0 0 0 0 0
0 0 0 0 0 0
0 0 0 0 0 0
0 0 0 0 0 0
0 0 0 0 0 0
0 0 0 1 1 1
1 1 1 1 1 1
1 1 1 1 1 1
1 1 1 1 1 1
1 1 1 1 1 1
1 1 1 1 1 1
1 1 1 1 1 1
1 1 1 1 1 1
1 1 1 1 1 1
1 1 1 1 1 1
2 2 2 2 2 2
2 2 2 2 2 2
2 2 2 2 2 2
2 2 2 2 2 2
2 2 2 2 2 2
2 2 2 2 2 2
2 2 2 2 2 2
2 2 2 2 2 2
2 2 2 2 2 2
2 1 1 2 1 1
1 1 1 1 1 2
2 2 2 3 2 2
2 2 3 3 3 3
3 3 3 3 3 3
3 3 1 1 1 1
1 1 1 1 2 2
2 2 1 1 1 3
3 3 3 1 2 2
2 2 1 1 1 2
2 2 1 1 1 1
1 1 1 1 1 1
1 1 1 1 1 1
1 1 2 2 2 2
2 1 1 1 1 1
1 1 1 1 1 1
1 1 1 1 1 1
1 1 1 1 1 2
2 2 2 2 3 3
3 2 2 2 2 3
3 3 2 2 2 2
2 2 2 2 2 3
3 3 3 3 3 3
3 3 2 2 2 2
2 2 2 2 2 2
2 2 2 2 2 2
2 2 2 2 2 3
3 3 3 3 3 3
3 3 3 3 3 3
3 3 3 3 3 3
3 3 3 3 3 3
3 3 3 3 3 3
3 3 3 3 3 3
3 3 3 3 3 3
3 3 3 3 3 3
3 3 3 3 3 3
3 3 3 3 3 3
3 3 3 3 3 3
3 3 3 3 3 3
3 3 3 3 3 3
3 3 1 1 1 2
1 2 1 1 2 2
2 2 3 3 3 1
1 1 2 3 3 1
1 1 2 1 1 1
2 1 1 1 1 1
1 2 1 1 1 2
1 1 1 1 2 1
1 1 2 2 3 3
3 3 2 2 2 2
3 3 2 3 2 2
3 3 3 3 2 2
2 3 3 3 3 3
3 3 2 2 2 2
3 2 2 3 3 3
2 2 3 3 2 2
3 3 3 3 3 3
3 3 3 3 3 3
3 3 3 3 3 3
3 3 3 3 3 3
3 3 3 3 3 3
3 1 1 1 1 1
2 1 1 1 2 3
2 2 2 3 3 3
2 2 2 2 2 3
3 3 3 3 3 3
2 2 2 2 2 2
2 2 2 2 2 3
3 3 2 2 2 2
2 2 2 2 2 2
3 3 3 3 3 3
3 3 3 3 3 3
3 3 3 3 3 3
3 3 3 3 3 3
3 3 3 3 3 3
3 3 3 3 3 3
3 3 2 2 2 2
2 3 3 2 2 3
3 2 2 2 2 3
3 2 2 2 2 3
3 2 2 2 3 3
3 3 3 3 3 3
3 3 3 3 3 3
3 3 3 3 3 3
3 3 3 1 1 2
2 1 1 1 2 1
2 1 1 1 2 3
2 2 2 2 2 2
2 2 3 3 3 3
3 3 3 3 3 3
2 2 2 2 2 2
3 3 3 3 3 3
3 3 3 3 3 3
3 3 3 3 3 1
1 1 2 2 2 1
1 1 2 2 2 2
2 1 1 1 2 2
2 2 1 1 1 1
1 1 1 2 2 2
2 1 1 1 2 2
2 2 2 1 1 1
2 2 2 2 2 1
1 1 1 1 1 1
1 1 1 1 1 1
1 1 1 1 1 1
1 2 3 3 2 2
3 2 2 3 3 3
3 3 2 2 2 2
2 2 2 2 3 3
3 3 3 2 2 2
2 2 2 2 2 2
2 2 2 2 2 2
3 3 3 3 2 2
2 2 2 3 2 2
3 2 3 3 2 2
2 3 3 3 3 3
3 3 3 3 3 3
3 3 3 3 3 3
3 3 3 3 3 3
3 3 3 3 3 3
3 3 3 3 3 3
3 3 3 3 3 3
2 2 2 2 2 2
2 2 2 2 2 2
2 2 2 3 3 3
3 3 3 3 3 3
3 3 3 3 3 3
2 2 2 3 3 3
2 2 2 2 2 2
2 3 3 3 3 2
2 3 3 3 3 3
3 3 3 3 3 3
3 3 3 3 3 3
3 3 3 3 3 3
3 3 3 3 3 3
3 3 3 1 1 1
2 2 2 3 2 2
2 1 1 2 2 2
2 2 2 2 2 1
1 2 2 1 1 1
2 1 2 1 1 2
2 2 2 2 1 1
1 2 2 2 2 2
2 2 3 3 1 1
1 1 1 1 1 1
2 2 3 3 2 2
2 2 2 3 3 3
3 3 2 2 2 3
3 2 2 3 3 2
2 2 3 3 2 2
2 3 3 3 3 2
2 2 3 3 3 3
3 3 3 3 3 3
3 3 3 3 3 3
3 3 3 3 3 3
3 3 2 2 2 2
2 2 2 2 2 2
3 2 2 2 2 2
3 3 3 3 3 3
3 3 3 3 3 3
3 3 3 3 3 3
3 3 3 3 3 3
3 3 3 3 3 3
3 3 3 3 3 3
3 3 3 3 3 3
1 1 1 1 1 1
1 1 1 2 1 2
2 3 2 2 2 3
3 3 3 3 3 3
2 3 3 3 3 1
1 1 1 1 1 1
1 1 1 1 1 1
1 1 3 3 2 2
2 2 2 2 2 3
3 3 3 3 3 3
1 1 1 2 1 1
1 1 1 1 1 1
1 1 1 1 1 1
1 2 1 1 1 3
3 3 3 2 1 1
1 2 1 1 1 1
1 1 1 1 1 1
1 1 1 1 1 1
1 1 1 1 1 1
1 1 1 1 1 1
1 1 1 1 1 1
1 1 1 1 1 1
1 1 1 1 1 1
1 3 2 2 3 2
2 3 3 3 2 3
3 3 2 2 2 2
3 3 3 3 3 3
3 3 3 3 2 2
2 2 2 2 2 2
3 3 3 3 2 2
3 3 2 2 2 3
3 3 3 2 2 2
2 2 2 3 3 3
3 3 3 3 3 2
1 1 1 1 1 1
1 1 1 1 1 1
1 1 1 1 1 1
3 2 1 1 1 1
1 1 1 1 1 1
1 1 1 1 1 1
1 1 1 1 1 1
1 1 1 1 3 3
3 3 3 3 3 2
2 2 2 2 2 2
2 2 2 2 2 2
2 2 2 2 2 2
2 2 2 2 3 3
3 3 3 3 3 3
3 3 3 3 3 3
3 3 3 3 3 3
3 3 3 1 1 1
1 1 1 1 1 1
1 1 1 1 2 3
3
        </DataArray>
      </PointData>
    </Piece>
  </UnstructuredGrid>
</VTKFile>
