<?xml version='1.0'?>
<!-- case='ws' region='region0' time='0' index='0' -->
<VTKFile type='UnstructuredGrid' version='0.1' byte_order='LittleEndian' header_type='UInt64'>
  <UnstructuredGrid>
    <FieldData>
      <DataArray type='Float32' Name='TimeValue' NumberOfTuples='1' format='ascii'>
0
      </DataArray>
    </FieldData>
    <Piece NumberOfPoints='1707' NumberOfCells='1268'>
      <Points>
        <DataArray type='Float32' Name='Points' NumberOfComponents='3' format='ascii'>
0 -5 0.3 1 -5 0.3
2 -5 0.3 3 -5 0.3
4 -5 0.3 5 -5 0.3
6 -5 0.3 7 -5 0.3
8 -5 0.3 9 -5 0.3
10 -5 0.3 0 -4 0.3
1 -4 0.3 2 -4 0.3
3 -4 0.3 4 -4 0.3
5 -4 0.3 6 -4 0.3
7 -4 0.3 8 -4 0.3
9 -4 0.3 10 -4 0.3
0 -3 0.3 1 -3 0.3
2 -3 0.3 3 -3 0.3
4 -3 0.3 5 -3 0.3
6 -3 0.3 7 -3 0.3
8 -3 0.3 9 -3 0.3
10 -3 0.3 0 -2 0.3
1 -2 0.3 2 -2 0.3
3 -2 0.3 4 -2 0.3
5 -2 0.3 6 -2 0.3
7 -2 0.3 8 -2 0.3
9 -2 0.3 10 -2 0.3
0 -1 0.3 1 -1 0.3
2 -1 0.3 3 -1 0.3
4 -1 0.3 5 -1 0.3
6 -1 0.3 7 -1 0.3
8 -1 0.3 9 -1 0.3
10 -1 0.3 0 0 0.3
1 0 0.3 2 0 0.3
3 0 0.3 4 0 0.3
5 0 0.3 6 0 0.3
7 3.70074e-17 0.3 8 -3.70074e-17 0.3
9 -1.85037e-17 0.3 10 0 0.3
0 1 0.3 1 1 0.3
2 1 0.3 3 1 0.3
4 1 0.3 5 1 0.3
6 1 0.3 7 1 0.3
8 1 0.3 9 1 0.3
10 1 0.3 0 2 0.3
1 2 0.3 2 2 0.3
3 2 0.3 4 2 0.3
5 2 0.3 6 2 0.3
7 2 0.3 8 2 0.3
9 2 0.3 10 2 0.3
0 3 0.3 1 3 0.3
2 3 0.3 3 3 0.3
4 3 0.3 5 3 0.3
6 3 0.3 7 3 0.3
8 3 0.3 9 3 0.3
10 3 0.3 0 4 0.3
1 4 0.3 2 4 0.3
3 4 0.3 4 4 0.3
5 4 0.3 6 4 0.3
7 4 0.3 8 4 0.3
9 4 0.3 10 4 0.3
0 5 0.3 1 5 0.3
2 5 0.3 3 5 0.3
4 5 0.3 5 5 0.3
6 5 0.3 7 5 0.3
8 5 0.3 9 5 0.3
10 5 0.3 0 -5 1.27
1 -5 1.27 2 -5 1.27
3 -5 1.27 4 -5 1.27
5 -5 1.27 6 -5 1.27
7 -5 1.27 8 -5 1.27
9 -5 1.27 10 -5 1.27
0 -4 1.27 1 -4 1.27
2 -4 1.27 3 -4 1.27
4 -4 1.27 5 -4 1.27
6 -4 1.27 7 -4 1.27
8 -4 1.27 9 -4 1.27
10 -4 1.27 0 -3 1.27
1 -3 1.27 2 -3 1.27
3 -3 1.27 4 -3 1.27
5 -3 1.27 6 -3 1.27
7 -3 1.27 8 -3 1.27
9 -3 1.27 10 -3 1.27
0 -2 1.27 1 -2 1.27
2 -2 1.27 3 -2 1.27
4 -2 1.27 5 -2 1.27
6 -2 1.27 7 -2 1.27
8 -2 1.27 9 -2 1.27
10 -2 1.27 0 -1 1.27
1 -1 1.27 2 -1 1.27
3 -1 1.27 4 -1 1.27
5 -1 1.27 6 -1 1.27
7 -1 1.27 8 -1 1.27
9 -1 1.27 10 -1 1.27
0 0 1.27 1 0 1.27
2 0 1.27 3 0 1.27
4 7.40149e-17 1.27 5 0 1.27
6 7.40149e-17 1.27 7 7.40149e-17 1.27
8 -3.70074e-17 1.27 9 -1.85037e-17 1.27
10 0 1.27 0 1 1.27
1 1 1.27 2 1 1.27
3 1 1.27 4 1 1.27
5 1 1.27 6 1 1.27
7 1 1.27 8 1 1.27
9 1 1.27 10 1 1.27
0 2 1.27 1 2 1.27
2 2 1.27 3 2 1.27
4 2 1.27 5 2 1.27
6 2 1.27 7 2 1.27
8 2 1.27 9 2 1.27
10 2 1.27 0 3 1.27
1 3 1.27 2 3 1.27
3 3 1.27 4 3 1.27
5 3 1.27 6 3 1.27
7 3 1.27 8 3 1.27
9 3 1.27 10 3 1.27
0 4 1.27 1 4 1.27
2 4 1.27 3 4 1.27
4 4 1.27 5 4 1.27
6 4 1.27 7 4 1.27
8 4 1.27 9 4 1.27
10 4 1.27 0 5 1.27
1 5 1.27 2 5 1.27
3 5 1.27 4 5 1.27
5 5 1.27 6 5 1.27
7 5 1.27 8 5 1.27
9 5 1.27 10 5 1.27
0 -5 2.24 1 -5 2.24
2 -5 2.24 3 -5 2.24
4 -5 2.24 5 -5 2.24
6 -5 2.24 7 -5 2.24
8 -5 2.24 9 -5 2.24
10 -5 2.24 0 -4 2.24
1 -4 2.24 2 -4 2.24
3 -4 2.24 4 -4 2.24
5 -4 2.24 6 -4 2.24
7 -4 2.24 8 -4 2.24
9 -4 2.24 10 -4 2.24
0 -3 2.24 1 -3 2.24
2 -3 2.24 3 -3 2.24
4 -3 2.24 5 -3 2.24
6 -3 2.24 7 -3 2.24
8 -3 2.24 9 -3 2.24
10 -3 2.24 0 -2 2.24
1 -2 2.24 2 -2 2.24
3 -2 2.24 4 -2 2.24
5 -2 2.24 6 -2 2.24
7 -2 2.24 8 -2 2.24
9 -2 2.24 10 -2 2.24
0 -1 2.24 1 -1 2.24
2 -1 2.24 3 -1 2.24
4 -1 2.24 5 -1 2.24
6 -1 2.24 7 -1 2.24
8 -1 2.24 9 -1 2.24
10 -1 2.24 0 0 2.24
1 0 2.24 2 7.40149e-17 2.24
3 0 2.24 4 7.40149e-17 2.24
5 0 2.24 6 7.40149e-17 2.24
7 3.70074e-17 2.24 8 -3.70074e-17 2.24
9 -1.85037e-17 2.24 10 0 2.24
0 1 2.24 1 1 2.24
2 1 2.24 3 1 2.24
4 1 2.24 5 1 2.24
6 1 2.24 7 1 2.24
8 1 2.24 9 1 2.24
10 1 2.24 0 2 2.24
1 2 2.24 2 2 2.24
3 2 2.24 4 2 2.24
5 2 2.24 6 2 2.24
7 2 2.24 8 2 2.24
9 2 2.24 10 2 2.24
0 3 2.24 1 3 2.24
2 3 2.24 3 3 2.24
4 3 2.24 5 3 2.24
6 3 2.24 7 3 2.24
8 3 2.24 9 3 2.24
10 3 2.24 0 4 2.24
1 4 2.24 2 4 2.24
3 4 2.24 4 4 2.24
5 4 2.24 6 4 2.24
7 4 2.24 8 4 2.24
9 4 2.24 10 4 2.24
0 5 2.24 1 5 2.24
2 5 2.24 3 5 2.24
4 5 2.24 5 5 2.24
6 5 2.24 7 5 2.24
8 5 2.24 9 5 2.24
10 5 2.24 0 -5 3.21
1 -5 3.21 2 -5 3.21
3 -5 3.21 4 -5 3.21
5 -5 3.21 6 -5 3.21
7 -5 3.21 8 -5 3.21
9 -5 3.21 10 -5 3.21
0 -4 3.21 1 -4 3.21
2 -4 3.21 3 -4 3.21
4 -4 3.21 5 -4 3.21
6 -4 3.21 7 -4 3.21
8 -4 3.21 9 -4 3.21
10 -4 3.21 0 -3 3.21
1 -3 3.21 2 -3 3.21
3 -3 3.21 4 -3 3.21
5 -3 3.21 6 -3 3.21
7 -3 3.21 8 -3 3.21
9 -3 3.21 10 -3 3.21
0 -2 3.21 1 -2 3.21
2 -2 3.21 3 -2 3.21
4 -2 3.21 5 -2 3.21
6 -2 3.21 7 -2 3.21
8 -2 3.21 9 -2 3.21
10 -2 3.21 0 -1 3.21
1 -1 3.21 2 -1 3.21
3 -1 3.21 4 -1 3.21
5 -1 3.21 6 -1 3.21
7 -1 3.21 8 -1 3.21
9 -1 3.21 10 -1 3.21
0 0 3.21 1 0 3.21
2 7.40149e-17 3.21 3 0 3.21
4 0 3.21 5 0 3.21
6 -3.70074e-17 3.21 7 3.70074e-17 3.21
8 -1.85037e-17 3.21 9 -1.85037e-17 3.21
10 0 3.21 0 1 3.21
1 1 3.21 2 1 3.21
3 1 3.21 4 1 3.21
5 1 3.21 6 1 3.21
7 1 3.21 8 1 3.21
9 1 3.21 10 1 3.21
0 2 3.21 1 2 3.21
2 2 3.21 3 2 3.21
4 2 3.21 5 2 3.21
6 2 3.21 7 2 3.21
8 2 3.21 9 2 3.21
10 2 3.21 0 3 3.21
1 3 3.21 2 3 3.21
3 3 3.21 4 3 3.21
5 3 3.21 6 3 3.21
7 3 3.21 8 3 3.21
9 3 3.21 10 3 3.21
0 4 3.21 1 4 3.21
2 4 3.21 3 4 3.21
4 4 3.21 5 4 3.21
6 4 3.21 7 4 3.21
8 4 3.21 9 4 3.21
10 4 3.21 0 5 3.21
1 5 3.21 2 5 3.21
3 5 3.21 4 5 3.21
5 5 3.21 6 5 3.21
7 5 3.21 8 5 3.21
9 5 3.21 10 5 3.21
0 -5 4.18 1 -5 4.18
2 -5 4.18 3 -5 4.18
4 -5 4.18 5 -5 4.18
6 -5 4.18 7 -5 4.18
8 -5 4.18 9 -5 4.18
10 -5 4.18 0 -4 4.18
1 -4 4.18 2 -4 4.18
3 -4 4.18 4 -4 4.18
5 -4 4.18 6 -4 4.18
7 -4 4.18 8 -4 4.18
9 -4 4.18 10 -4 4.18
0 -3 4.18 1 -3 4.18
2 -3 4.18 3 -3 4.18
4 -3 4.18 5 -3 4.18
6 -3 4.18 7 -3 4.18
8 -3 4.18 9 -3 4.18
10 -3 4.18 0 -2 4.18
1 -2 4.18 2 -2 4.18
3 -2 4.18 4 -2 4.18
5 -2 4.18 6 -2 4.18
7 -2 4.18 8 -2 4.18
9 -2 4.18 10 -2 4.18
0 -1 4.18 1 -1 4.18
2 -1 4.18 3 -1 4.18
4 -1 4.18 5 -1 4.18
6 -1 4.18 7 -1 4.18
8 -1 4.18 9 -1 4.18
10 -1 4.18 0 0 4.18
1 0 4.18 2 0 4.18
3 0 4.18 4 0 4.18
5 0 4.18 6 0 4.18
7 3.70074e-17 4.18 8 -3.70074e-17 4.18
9 -1.85037e-17 4.18 10 0 4.18
0 1 4.18 1 1 4.18
2 1 4.18 3 1 4.18
4 1 4.18 5 1 4.18
6 1 4.18 7 1 4.18
8 1 4.18 9 1 4.18
10 1 4.18 0 2 4.18
1 2 4.18 2 2 4.18
3 2 4.18 4 2 4.18
5 2 4.18 6 2 4.18
7 2 4.18 8 2 4.18
9 2 4.18 10 2 4.18
0 3 4.18 1 3 4.18
2 3 4.18 3 3 4.18
4 3 4.18 5 3 4.18
6 3 4.18 7 3 4.18
8 3 4.18 9 3 4.18
10 3 4.18 0 4 4.18
1 4 4.18 2 4 4.18
3 4 4.18 4 4 4.18
5 4 4.18 6 4 4.18
7 4 4.18 8 4 4.18
9 4 4.18 10 4 4.18
0 5 4.18 1 5 4.18
2 5 4.18 3 5 4.18
4 5 4.18 5 5 4.18
6 5 4.18 7 5 4.18
8 5 4.18 9 5 4.18
10 5 4.18 0 -5 5.15
1 -5 5.15 2 -5 5.15
3 -5 5.15 4 -5 5.15
5 -5 5.15 6 -5 5.15
7 -5 5.15 8 -5 5.15
9 -5 5.15 10 -5 5.15
0 -4 5.15 1 -4 5.15
2 -4 5.15 3 -4 5.15
4 -4 5.15 5 -4 5.15
6 -4 5.15 7 -4 5.15
8 -4 5.15 9 -4 5.15
10 -4 5.15 0 -3 5.15
1 -3 5.15 2 -3 5.15
3 -3 5.15 4 -3 5.15
5 -3 5.15 6 -3 5.15
7 -3 5.15 8 -3 5.15
9 -3 5.15 10 -3 5.15
0 -2 5.15 1 -2 5.15
2 -2 5.15 3 -2 5.15
4 -2 5.15 5 -2 5.15
6 -2 5.15 7 -2 5.15
8 -2 5.15 9 -2 5.15
10 -2 5.15 0 -1 5.15
1 -1 5.15 2 -1 5.15
3 -1 5.15 4 -1 5.15
5 -1 5.15 6 -1 5.15
7 -1 5.15 8 -1 5.15
9 -1 5.15 10 -1 5.15
0 0 5.15 1 0 5.15
2 0 5.15 3 0 5.15
4 0 5.15 5 0 5.15
6 0 5.15 7 3.70074e-17 5.15
8 -3.70074e-17 5.15 9 -1.85037e-17 5.15
10 0 5.15 0 1 5.15
1 1 5.15 2 1 5.15
3 1 5.15 4 1 5.15
5 1 5.15 6 1 5.15
7 1 5.15 8 1 5.15
9 1 5.15 10 1 5.15
0 2 5.15 1 2 5.15
2 2 5.15 3 2 5.15
4 2 5.15 5 2 5.15
6 2 5.15 7 2 5.15
8 2 5.15 9 2 5.15
10 2 5.15 0 3 5.15
1 3 5.15 2 3 5.15
3 3 5.15 4 3 5.15
5 3 5.15 6 3 5.15
7 3 5.15 8 3 5.15
9 3 5.15 10 3 5.15
0 4 5.15 1 4 5.15
2 4 5.15 3 4 5.15
4 4 5.15 5 4 5.15
6 4 5.15 7 4 5.15
8 4 5.15 9 4 5.15
10 4 5.15 0 5 5.15
1 5 5.15 2 5 5.15
3 5 5.15 4 5 5.15
5 5 5.15 6 5 5.15
7 5 5.15 8 5 5.15
9 5 5.15 10 5 5.15
0 -5 6.12 1 -5 6.12
2 -5 6.12 3 -5 6.12
4 -5 6.12 5 -5 6.12
6 -5 6.12 7 -5 6.12
8 -5 6.12 9 -5 6.12
10 -5 6.12 0 -4 6.12
1 -4 6.12 2 -4 6.12
3 -4 6.12 4 -4 6.12
5 -4 6.12 6 -4 6.12
7 -4 6.12 8 -4 6.12
9 -4 6.12 10 -4 6.12
0 -3 6.12 1 -3 6.12
2 -3 6.12 3 -3 6.12
4 -3 6.12 5 -3 6.12
6 -3 6.12 7 -3 6.12
8 -3 6.12 9 -3 6.12
10 -3 6.12 0 -2 6.12
1 -2 6.12 2 -2 6.12
3 -2 6.12 4 -2 6.12
5 -2 6.12 6 -2 6.12
7 -2 6.12 8 -2 6.12
9 -2 6.12 10 -2 6.12
0 -1 6.12 1 -1 6.12
2 -1 6.12 3 -1 6.12
4 -1 6.12 5 -1 6.12
6 -1 6.12 7 -1 6.12
8 -1 6.12 9 -1 6.12
10 -1 6.12 0 0 6.12
1 0 6.12 2 0 6.12
3 0 6.12 4 0 6.12
5 0 6.12 6 0 6.12
7 3.70074e-17 6.12 8 -3.70074e-17 6.12
9 -1.85037e-17 6.12 10 0 6.12
0 1 6.12 1 1 6.12
2 1 6.12 3 1 6.12
4 1 6.12 5 1 6.12
6 1 6.12 7 1 6.12
8 1 6.12 9 1 6.12
10 1 6.12 0 2 6.12
1 2 6.12 2 2 6.12
3 2 6.12 4 2 6.12
5 2 6.12 6 2 6.12
7 2 6.12 8 2 6.12
9 2 6.12 10 2 6.12
0 3 6.12 1 3 6.12
2 3 6.12 3 3 6.12
4 3 6.12 5 3 6.12
6 3 6.12 7 3 6.12
8 3 6.12 9 3 6.12
10 3 6.12 0 4 6.12
1 4 6.12 2 4 6.12
3 4 6.12 4 4 6.12
5 4 6.12 6 4 6.12
7 4 6.12 8 4 6.12
9 4 6.12 10 4 6.12
0 5 6.12 1 5 6.12
2 5 6.12 3 5 6.12
4 5 6.12 5 5 6.12
6 5 6.12 7 5 6.12
8 5 6.12 9 5 6.12
10 5 6.12 0 -5 7.09
1 -5 7.09 2 -5 7.09
3 -5 7.09 4 -5 7.09
5 -5 7.09 6 -5 7.09
7 -5 7.09 8 -5 7.09
9 -5 7.09 10 -5 7.09
0 -4 7.09 1 -4 7.09
2 -4 7.09 3 -4 7.09
4 -4 7.09 5 -4 7.09
6 -4 7.09 7 -4 7.09
8 -4 7.09 9 -4 7.09
10 -4 7.09 0 -3 7.09
1 -3 7.09 2 -3 7.09
3 -3 7.09 4 -3 7.09
5 -3 7.09 6 -3 7.09
7 -3 7.09 8 -3 7.09
9 -3 7.09 10 -3 7.09
0 -2 7.09 1 -2 7.09
2 -2 7.09 3 -2 7.09
4 -2 7.09 5 -2 7.09
6 -2 7.09 7 -2 7.09
8 -2 7.09 9 -2 7.09
10 -2 7.09 0 -1 7.09
1 -1 7.09 2 -1 7.09
3 -1 7.09 4 -1 7.09
5 -1 7.09 6 -1 7.09
7 -1 7.09 8 -1 7.09
9 -1 7.09 10 -1 7.09
0 0 7.09 1 0 7.09
2 0 7.09 3 0 7.09
4 0 7.09 5 0 7.09
6 0 7.09 7 3.70074e-17 7.09
8 -3.70074e-17 7.09 9 -1.85037e-17 7.09
10 0 7.09 0 1 7.09
1 1 7.09 2 1 7.09
3 1 7.09 4 1 7.09
5 1 7.09 6 1 7.09
7 1 7.09 8 1 7.09
9 1 7.09 10 1 7.09
0 2 7.09 1 2 7.09
2 2 7.09 3 2 7.09
4 2 7.09 5 2 7.09
6 2 7.09 7 2 7.09
8 2 7.09 9 2 7.09
10 2 7.09 0 3 7.09
1 3 7.09 2 3 7.09
3 3 7.09 4 3 7.09
5 3 7.09 6 3 7.09
7 3 7.09 8 3 7.09
9 3 7.09 10 3 7.09
0 4 7.09 1 4 7.09
2 4 7.09 3 4 7.09
4 4 7.09 5 4 7.09
6 4 7.09 7 4 7.09
8 4 7.09 9 4 7.09
10 4 7.09 0 5 7.09
1 5 7.09 2 5 7.09
3 5 7.09 4 5 7.09
5 5 7.09 6 5 7.09
7 5 7.09 8 5 7.09
9 5 7.09 10 5 7.09
0 -5 8.06 1 -5 8.06
2 -5 8.06 3 -5 8.06
4 -5 8.06 5 -5 8.06
[...]
      <CellData>
        <DataArray type='Float32' Name='cellLevel' format='ascii'>
0 0 0 0 0 0
0 0 0 0 0 0
0 0 0 0 0 0
0 0 0 0 0 0
0 0 0 0 0 0
0 0 0 0 0 0
0 0 0 0 0 0
0 0 0 0 0 0
0 0 0 0 0 0
0 0 0 0 0 0
0 0 0 0 0 0
0 0 0 0 0 0
0 0 0 0 0 0
0 0 0 0 0 0
0 0 0 0 0 0
0 0 0 0 0 0
0 0 0 0 0 0
0 0 0 0 0 0
0 0 0 0 0 0
0 0 0 0 0 0
0 0 0 0 0 0
0 0 0 0 0 0
0 0 0 0 0 0
0 0 0 0 0 0
0 0 0 0 0 0
0 0 0 0 0 0
0 0 0 0 0 0
0 0 0 0 0 0
0 0 0 0 0 0
0 0 0 0 0 0
0 0 0 0 0 0
0 0 0 0 0 0
0 0 0 0 0 0
0 0 0 0 0 0
0 0 0 0 0 0
0 0 0 0 0 0
0 0 0 0 0 0
0 0 0 0 0 0
0 0 0 0 0 0
0 0 0 0 0 0
0 0 0 0 0 0
0 0 0 0 0 0
0 0 0 0 0 0
0 0 0 0 0 0
0 0 0 0 0 0
0 0 0 0 0 0
0 0 0 0 0 0
0 0 0 0 0 0
0 0 0 0 0 0
0 0 0 0 0 0
0 0 0 0 0 0
0 0 0 0 0 0
0 0 0 0 0 0
0 0 0 0 0 0
0 0 0 0 0 0
0 0 0 0 0 0
0 0 0 0 0 0
0 0 0 0 0 0
0 0 0 0 0 0
0 0 0 0 0 0
0 0 0 0 0 0
0 0 0 0 0 0
0 0 0 0 0 0
0 0 0 0 0 0
0 0 0 0 0 0
0 0 0 0 0 0
0 0 0 0 0 0
0 0 0 0 0 0
0 0 0 0 0 0
0 0 0 0 0 0
0 0 0 0 0 0
0 0 0 0 0 0
0 0 0 0 0 0
0 0 0 0 0 0
0 0 0 0 0 0
0 0 0 0 0 0
0 0 0 0 0 0
0 0 0 0 0 0
0 0 0 0 0 0
0 0 0 0 0 0
0 0 0 0 0 0
0 0 0 0 0 0
0 0 0 0 0 0
0 0 0 0 0 0
0 0 0 0 0 0
0 0 0 0 0 0
0 0 0 0 0 0
0 0 0 0 0 0
0 0 0 0 0 1
1 1 0 0 0 0
0 0 0 1 1 1
0 0 0 0 0 0
0 1 1 1 0 0
0 0 0 0 0 1
1 1 0 0 0 0
0 0 0 0 0 0
0 0 0 0 0 0
0 0 0 0 0 0
0 0 0 0 0 0
0 0 0 0 0 0
0 0 0 0 0 0
0 0 0 0 0 0
0 0 0 0 0 0
0 0 0 0 0 0
0 0 0 0 0 0
0 0 0 1 1 1
0 0 0 0 0 0
0 1 1 1 0 0
0 0 0 0 0 1
1 1 0 0 0 0
0 0 0 1 1 1
0 0 0 0 0 0
0 0 0 0 0 0
0 0 0 0 0 0
0 0 0 0 0 0
0 0 0 0 0 0
0 0 0 0 0 0
0 0 0 0 0 0
0 0 0 0 0 0
0 0 0 0 0 0
0 0 0 0 0 0
0 0 0 0 0 0
0 0 0 0 0 0
0 0 0 0 0 0
0 0 0 0 0 0
0 0 0 0 0 0
0 0 0 0 0 0
0 0 0 0 0 0
0 0 0 0 0 0
0 0 0 0 0 0
0 0 0 0 0 0
0 0 0 0 0 0
0 0 0 0 0 0
0 0 0 0 0 0
0 0 0 0 0 0
0 0 0 0 0 0
0 0 0 0 0 0
0 0 0 0 0 0
0 0 0 0 0 0
0 0 0 0 0 0
0 0 0 0 0 0
0 0 0 0 0 0
0 0 0 0 0 0
0 0 0 0 0 0
0 0 0 0 0 0
0 0 0 0 0 0
0 0 0 0 0 0
0 0 0 0 0 0
0 0 0 0 0 0
0 0 0 0 0 0
0 0 0 0 0 0
0 0 0 0 0 0
0 0 0 0 0 0
0 0 0 0 0 0
0 0 0 0 0 0
0 0 0 0 0 0
0 0 0 0 0 0
0 0 0 0 0 0
0 0 0 0 0 0
0 0 0 0 0 0
0 0 0 0 0 0
0 0 0 0 0 0
0 0 0 0 0 0
0 0 0 0 0 0
0 0 0 0 0 0
0 0 0 0 0 0
0 0 0 0 1 1
1 1 1 1 1 1
1 1 1 1 1 1
1 1 1 1 1 1
1 1 1 1 1 1
1 1 1 1 1 1
1 1 1 1 1 1
1 1 1 1 1 1
1 1 1 1 1 1
1 1 1 1 1 1
1 1 1 1 1 1
1 1 1 1 1 1
1 1 1 1 1 1
1 1 1 1 1 1
1 1 1 1 1 1
1 1 1 1 1 1
1 1 1 1 1 1
1 1 1 1 1 1
1 1 1 1 1 1
1 1 1 1 1 1
1 1 1 1 1 1
1 1 1 1 1 1
1 1 1 1 1 1
1 1 1 1 1 1
1 1 1 1 1 1
1 1 1 1 1 1
1 1 1 1 1 1
1 1 1 1 1 1
1 1 1 1 0 0
0 0 0 0 0 0
0 0 0 0 0 0
0 0 0 0 0 0
0 0 0 0 0 0
0 0 0 0 0 0
0 0 0 0 0 0
0 0 0 0 0 0
0 0 0 0 0 0
0 0 0 0 0 0
0 0 0 0 0 0
0 0 0 0 0 0
0 0 0 0 0 0
0 0 0 0 0 0
0 0 0 0 0 0
0 0 0 0 0 0
0 0 0 0 0 0
0 0
        </DataArray>
        <DataArray type='Float32' Name='nSurfaceLayers' format='ascii'>
0 0 0 0 0 0
0 0 0 0 0 0
0 0 0 0 0 0
0 0 0 0 0 0
0 0 0 0 0 0
0 0 0 0 0 0
0 0 0 0 0 0
0 0 0 0 0 0
0 0 0 0 0 0
0 0 0 0 0 0
0 0 0 0 0 0
0 0 0 0 0 0
0 0 0 0 0 0
0 0 0 0 0 0
0 0 0 0 0 0
0 0 0 0 0 0
0 0 0 0 0 0
0 0 0 0 0 0
0 0 0 0 0 0
0 0 0 0 0 0
0 0 0 0 0 0
0 0 0 0 0 0
0 0 0 0 0 0
0 0 0 0 0 0
0 0 0 0 0 0
0 0 0 0 0 0
0 0 0 0 0 0
0 0 0 0 0 0
0 0 0 0 0 0
0 0 0 0 0 0
0 0 0 0 0 0
0 0 0 0 0 0
0 0 0 0 0 0
0 0 0 0 0 0
0 0 0 0 0 0
0 0 0 0 0 0
0 0 0 0 0 0
0 0 0 0 0 0
0 0 0 0 0 0
0 0 0 0 0 0
0 0 0 0 0 0
0 0 0 0 0 0
0 0 0 0 0 0
0 0 0 0 0 0
0 0 0 0 0 0
0 0 0 0 0 0
0 0 0 0 0 0
0 0 0 0 0 0
0 0 0 0 0 0
0 0 0 0 0 0
0 0 0 0 0 0
0 0 0 0 0 0
0 0 0 0 0 0
0 0 0 0 0 0
0 0 0 0 0 0
0 0 0 0 0 0
0 0 0 0 0 0
0 0 0 0 0 0
0 0 0 0 0 0
0 0 0 0 0 0
0 0 0 0 0 0
0 0 0 0 0 0
0 0 0 0 0 0
0 0 0 0 0 0
0 0 0 0 0 0
0 0 0 0 0 0
0 0 0 0 0 0
0 0 0 0 0 0
0 0 0 0 0 0
0 0 0 0 0 0
0 0 0 0 0 0
0 0 0 0 0 0
0 0 0 0 0 0
0 0 0 0 0 0
0 0 0 0 0 0
0 0 0 0 0 0
0 0 0 0 0 0
0 0 0 0 0 0
0 0 0 0 0 0
0 0 0 0 0 0
0 0 0 0 0 0
0 0 0 0 0 0
0 0 0 0 0 0
0 0 0 0 0 0
0 0 0 0 0 0
0 0 0 0 0 0
0 0 0 0 0 0
0 0 0 0 0 0
0 0 0 0 0 0
0 0 0 0 0 0
0 0 0 0 0 0
0 0 0 0 0 0
0 0 0 0 0 0
0 0 0 0 0 0
0 0 0 0 0 0
0 0 0 0 0 0
0 0 0 0 0 0
0 0 0 0 0 0
0 0 0 0 0 0
0 0 0 0 0 0
0 0 0 0 0 0
0 0 0 0 0 0
0 0 0 0 0 0
0 0 0 0 0 0
0 0 0 0 0 0
0 0 0 0 0 0
0 0 0 0 0 0
0 0 0 0 0 0
0 0 0 0 0 0
0 0 0 0 0 0
0 0 0 0 0 0
0 0 0 0 0 0
0 0 0 0 0 0
0 0 0 0 0 0
0 0 0 0 0 0
0 0 0 0 0 0
0 0 0 0 0 0
0 0 0 0 0 0
0 0 0 0 0 0
0 0 0 0 0 0
0 0 0 0 0 0
0 0 0 0 0 0
0 0 0 0 0 0
0 0 0 0 0 0
0 0 0 0 0 0
0 0 0 0 0 0
0 0 0 0 0 0
0 0 0 0 0 0
0 0 0 0 0 0
0 0 0 0 0 0
0 0 0 0 0 0
0 0 0 0 0 0
0 0 0 0 0 0
0 0 0 0 0 0
0 0 0 0 0 0
0 0 0 0 0 0
0 0 0 0 0 0
0 0 0 0 0 0
0 0 0 0 0 0
0 0 0 0 0 0
0 0 0 0 0 0
0 0 0 0 0 0
0 0 0 0 0 0
0 0 0 0 0 0
0 0 0 0 0 0
0 0 0 0 0 0
0 0 0 0 0 0
0 0 0 0 0 0
0 0 0 0 0 0
0 0 0 0 0 0
0 0 0 0 0 0
0 0 0 0 0 0
0 0 0 0 0 0
0 0 0 0 0 0
0 0 0 0 0 0
0 0 0 0 0 0
0 0 0 0 0 0
0 0 0 0 0 0
0 0 0 0 0 0
0 0 0 0 0 0
0 0 0 0 0 0
0 0 0 0 0 0
0 0 0 0 0 0
0 0 0 0 0 0
0 0 0 0 0 0
0 0 0 0 0 0
0 0 0 0 0 0
0 0 0 0 0 0
0 0 0 0 0 0
0 0 0 0 0 0
0 0 0 0 0 0
0 0 0 0 0 0
0 0 0 0 0 0
0 0 0 0 0 0
0 0 0 0 0 0
0 0 0 0 0 0
0 0 0 0 0 0
0 0 0 0 0 0
0 0 0 0 0 0
0 0 0 0 0 0
0 0 0 0 0 0
0 0 0 0 0 0
0 0 0 0 0 0
0 0 0 0 0 0
0 0 0 0 0 0
0 0 0 0 0 0
0 0 0 0 0 0
0 0 0 0 0 0
0 0 0 0 0 0
0 0 0 0 0 0
0 0 0 0 0 0
0 0 0 0 0 0
0 0 0 0 0 0
0 0 0 0 0 0
0 0 0 0 1 1
1 1 1 1 1 1
1 1 1 1 1 1
1 1 1 1 1 1
1 1 1 1 1 1
1 1 1 1 1 1
1 1 1 1 1 1
1 1 1 1 1 1
1 1 1 1 1 1
1 1 1 1 1 1
1 1 1 1 1 1
1 1 1 1 1 1
1 1 1 1 1 1
1 1 1 1 1 1
1 1 1 1 1 1
1 1 1 1 1 1
1 1 1 1 1 1
1 1
        </DataArray>
        <DataArray type='Float32' Name='thickness' format='ascii'>
0 0 0 0 0 0
0 0 0 0 0 0
0 0 0 0 0 0
0 0 0 0 0 0
0 0 0 0 0 0
0 0 0 0 0 0
0 0 0 0 0 0
0 0 0 0 0 0
0 0 0 0 0 0
0 0 0 0 0 0
0 0 0 0 0 0
0 0 0 0 0 0
0 0 0 0 0 0
0 0 0 0 0 0
0 0 0 0 0 0
0 0 0 0 0 0
0 0 0 0 0 0
0 0 0 0 0 0
0 0 0 0 0 0
0 0 0 0 0 0
0 0 0 0 0 0
0 0 0 0 0 0
0 0 0 0 0 0
0 0 0 0 0 0
0 0 0 0 0 0
0 0 0 0 0 0
0 0 0 0 0 0
0 0 0 0 0 0
0 0 0 0 0 0
0 0 0 0 0 0
0 0 0 0 0 0
0 0 0 0 0 0
0 0 0 0 0 0
0 0 0 0 0 0
0 0 0 0 0 0
0 0 0 0 0 0
0 0 0 0 0 0
0 0 0 0 0 0
0 0 0 0 0 0
0 0 0 0 0 0
0 0 0 0 0 0
0 0 0 0 0 0
0 0 0 0 0 0
0 0 0 0 0 0
0 0 0 0 0 0
0 0 0 0 0 0
0 0 0 0 0 0
0 0 0 0 0 0
0 0 0 0 0 0
0 0 0 0 0 0
0 0 0 0 0 0
0 0 0 0 0 0
0 0 0 0 0 0
0 0 0 0 0 0
0 0 0 0 0 0
0 0 0 0 0 0
0 0 0 0 0 0
0 0 0 0 0 0
0 0 0 0 0 0
0 0 0 0 0 0
0 0 0 0 0 0
0 0 0 0 0 0
0 0 0 0 0 0
0 0 0 0 0 0
0 0 0 0 0 0
0 0 0 0 0 0
0 0 0 0 0 0
0 0 0 0 0 0
0 0 0 0 0 0
0 0 0 0 0 0
0 0 0 0 0 0
0 0 0 0 0 0
0 0 0 0 0 0
0 0 0 0 0 0
0 0 0 0 0 0
0 0 0 0 0 0
0 0 0 0 0 0
0 0 0 0 0 0
0 0 0 0 0 0
0 0 0 0 0 0
0 0 0 0 0 0
0 0 0 0 0 0
0 0 0 0 0 0
0 0 0 0 0 0
0 0 0 0 0 0
0 0 0 0 0 0
0 0 0 0 0 0
0 0 0 0 0 0
0 0 0 0 0 0
0 0 0 0 0 0
0 0 0 0 0 0
0 0 0 0 0 0
0 0 0 0 0 0
0 0 0 0 0 0
0 0 0 0 0 0
0 0 0 0 0 0
0 0 0 0 0 0
0 0 0 0 0 0
0 0 0 0 0 0
0 0 0 0 0 0
0 0 0 0 0 0
0 0 0 0 0 0
0 0 0 0 0 0
0 0 0 0 0 0
0 0 0 0 0 0
0 0 0 0 0 0
0 0 0 0 0 0
0 0 0 0 0 0
0 0 0 0 0 0
0 0 0 0 0 0
0 0 0 0 0 0
0 0 0 0 0 0
0 0 0 0 0 0
0 0 0 0 0 0
0 0 0 0 0 0
0 0 0 0 0 0
0 0 0 0 0 0
0 0 0 0 0 0
0 0 0 0 0 0
0 0 0 0 0 0
0 0 0 0 0 0
0 0 0 0 0 0
0 0 0 0 0 0
0 0 0 0 0 0
0 0 0 0 0 0
0 0 0 0 0 0
0 0 0 0 0 0
0 0 0 0 0 0
0 0 0 0 0 0
0 0 0 0 0 0
0 0 0 0 0 0
0 0 0 0 0 0
0 0 0 0 0 0
0 0 0 0 0 0
0 0 0 0 0 0
0 0 0 0 0 0
0 0 0 0 0 0
0 0 0 0 0 0
0 0 0 0 0 0
0 0 0 0 0 0
0 0 0 0 0 0
0 0 0 0 0 0
0 0 0 0 0 0
0 0 0 0 0 0
0 0 0 0 0 0
0 0 0 0 0 0
0 0 0 0 0 0
0 0 0 0 0 0
0 0 0 0 0 0
0 0 0 0 0 0
0 0 0 0 0 0
0 0 0 0 0 0
0 0 0 0 0 0
0 0 0 0 0 0
0 0 0 0 0 0
0 0 0 0 0 0
0 0 0 0 0 0
0 0 0 0 0 0
0 0 0 0 0 0
0 0 0 0 0 0
0 0 0 0 0 0
0 0 0 0 0 0
0 0 0 0 0 0
0 0 0 0 0 0
0 0 0 0 0 0
0 0 0 0 0 0
0 0 0 0 0 0
0 0 0 0 0 0
0 0 0 0 0 0
0 0 0 0 0 0
0 0 0 0 0 0
0 0 0 0 0 0
0 0 0 0 0 0
0 0 0 0 0 0
0 0 0 0 0 0
0 0 0 0 0 0
0 0 0 0 0 0
0 0 0 0 0 0
0 0 0 0 0 0
0 0 0 0 0 0
0 0 0 0 0 0
0 0 0 0 0 0
0 0 0 0 0 0
0 0 0 0 0 0
0 0 0 0 0 0
0 0 0 0 0 0
0 0 0 0 0 0
0 0 0 0 0 0
0 0 0 0 0 0
0 0 0 0 0 0
0 0 0 0 0 0
0 0 0 0 0 0
0 0 0 0 0 0
0 0 0 0 0 0
0 0 0 0 0 0
0 0 0 0 0 0
0 0 0 0 0 0
0 0 0 0 0 0
0 0 0 0 0 0
0 0 0 0 0 0
0 0 0 0 0 0
0 0 0 0 0 0
0 0 0 0 0 0
0 0 0 0 0 0
0 0 0 0 0 0
0 0 0 0 0 0
0 0 0 0 0 0
0 0 0 0 0 0
0 0 0 0 0 0
0 0 0 0 0 0
0 0 0 0 0 0
0 0
        </DataArray>
        <DataArray type='Float32' Name='thicknessFraction' format='ascii'>
0 0 0 0 0 0
0 0 0 0 0 0
0 0 0 0 0 0
0 0 0 0 0 0
0 0 0 0 0 0
0 0 0 0 0 0
0 0 0 0 0 0
0 0 0 0 0 0
0 0 0 0 0 0
0 0 0 0 0 0
0 0 0 0 0 0
0 0 0 0 0 0
0 0 0 0 0 0
0 0 0 0 0 0
0 0 0 0 0 0
0 0 0 0 0 0
0 0 0 0 0 0
0 0 0 0 0 0
0 0 0 0 0 0
0 0 0 0 0 0
0 0 0 0 0 0
0 0 0 0 0 0
0 0 0 0 0 0
0 0 0 0 0 0
0 0 0 0 0 0
0 0 0 0 0 0
0 0 0 0 0 0
0 0 0 0 0 0
0 0 0 0 0 0
0 0 0 0 0 0
0 0 0 0 0 0
0 0 0 0 0 0
0 0 0 0 0 0
0 0 0 0 0 0
0 0 0 0 0 0
0 0 0 0 0 0
0 0 0 0 0 0
0 0 0 0 0 0
0 0 0 0 0 0
0 0 0 0 0 0
0 0 0 0 0 0
0 0 0 0 0 0
0 0 0 0 0 0
0 0 0 0 0 0
0 0 0 0 0 0
0 0 0 0 0 0
0 0 0 0 0 0
0 0 0 0 0 0
0 0 0 0 0 0
0 0 0 0 0 0
0 0 0 0 0 0
0 0 0 0 0 0
0 0 0 0 0 0
0 0 0 0 0 0
0 0 0 0 0 0
0 0 0 0 0 0
0 0 0 0 0 0
0 0 0 0 0 0
0 0 0 0 0 0
0 0 0 0 0 0
0 0 0 0 0 0
0 0 0 0 0 0
0 0 0 0 0 0
0 0 0 0 0 0
0 0 0 0 0 0
0 0 0 0 0 0
0 0 0 0 0 0
0 0 0 0 0 0
0 0 0 0 0 0
0 0 0 0 0 0
0 0 0 0 0 0
0 0 0 0 0 0
0 0 0 0 0 0
0 0 0 0 0 0
0 0 0 0 0 0
0 0 0 0 0 0
0 0 0 0 0 0
0 0 0 0 0 0
0 0 0 0 0 0
0 0 0 0 0 0
0 0 0 0 0 0
0 0 0 0 0 0
0 0 0 0 0 0
0 0 0 0 0 0
0 0 0 0 0 0
0 0 0 0 0 0
0 0 0 0 0 0
0 0 0 0 0 0
0 0 0 0 0 0
0 0 0 0 0 0
0 0 0 0 0 0
0 0 0 0 0 0
0 0 0 0 0 0
0 0 0 0 0 0
0 0 0 0 0 0
0 0 0 0 0 0
0 0 0 0 0 0
0 0 0 0 0 0
0 0 0 0 0 0
0 0 0 0 0 0
0 0 0 0 0 0
0 0 0 0 0 0
0 0 0 0 0 0
0 0 0 0 0 0
0 0 0 0 0 0
0 0 0 0 0 0
0 0 0 0 0 0
0 0 0 0 0 0
0 0 0 0 0 0
0 0 0 0 0 0
0 0 0 0 0 0
0 0 0 0 0 0
0 0 0 0 0 0
0 0 0 0 0 0
0 0 0 0 0 0
0 0 0 0 0 0
0 0 0 0 0 0
0 0 0 0 0 0
0 0 0 0 0 0
0 0 0 0 0 0
0 0 0 0 0 0
0 0 0 0 0 0
0 0 0 0 0 0
0 0 0 0 0 0
0 0 0 0 0 0
0 0 0 0 0 0
0 0 0 0 0 0
0 0 0 0 0 0
0 0 0 0 0 0
0 0 0 0 0 0
0 0 0 0 0 0
0 0 0 0 0 0
0 0 0 0 0 0
0 0 0 0 0 0
0 0 0 0 0 0
0 0 0 0 0 0
0 0 0 0 0 0
0 0 0 0 0 0
0 0 0 0 0 0
0 0 0 0 0 0
0 0 0 0 0 0
0 0 0 0 0 0
0 0 0 0 0 0
0 0 0 0 0 0
0 0 0 0 0 0
0 0 0 0 0 0
0 0 0 0 0 0
0 0 0 0 0 0
0 0 0 0 0 0
0 0 0 0 0 0
0 0 0 0 0 0
0 0 0 0 0 0
0 0 0 0 0 0
0 0 0 0 0 0
0 0 0 0 0 0
0 0 0 0 0 0
0 0 0 0 0 0
0 0 0 0 0 0
0 0 0 0 0 0
0 0 0 0 0 0
0 0 0 0 0 0
0 0 0 0 0 0
0 0 0 0 0 0
0 0 0 0 0 0
0 0 0 0 0 0
0 0 0 0 0 0
0 0 0 0 0 0
0 0 0 0 0 0
0 0 0 0 0 0
0 0 0 0 0 0
0 0 0 0 0 0
0 0 0 0 0 0
0 0 0 0 0 0
0 0 0 0 0 0
0 0 0 0 0 0
0 0 0 0 0 0
0 0 0 0 0 0
0 0 0 0 0 0
0 0 0 0 0 0
0 0 0 0 0 0
0 0 0 0 0 0
0 0 0 0 0 0
0 0 0 0 0 0
0 0 0 0 0 0
0 0 0 0 0 0
0 0 0 0 0 0
0 0 0 0 0 0
0 0 0 0 0 0
0 0 0 0 0 0
0 0 0 0 0 0
0 0 0 0 0 0
0 0 0 0 0 0
0 0 0 0 0 0
0 0 0 0 0 0
0 0 0 0 0 0
0 0 0 0 0 0
0 0 0 0 0 0
0 0 0 0 0 0
0 0 0 0 0 0
0 0 0 0 0 0
0 0 0 0 0 0
0 0 0 0 0 0
0 0 0 0 0 0
0 0 0 0 0 0
0 0 0 0 0 0
0 0 0 0 0 0
0 0 0 0 0 0
0 0 0 0 0 0
0 0 0 0 0 0
0 0 0 0 0 0
0 0 0 0 0 0
0 0
        </DataArray>
      </CellData>
      <PointData>
        <DataArray type='Float32' Name='cellLevel' format='ascii'>
0 0 0 0 0 0
0 0 0 0 0 0
0 0 0 0 0 0
0 0 0 0 0 0
0 0 0 0 0 0
0 0 0 0 0 0
0 0 0 0 0 0
0 0 0 0 0 0
0 0 0 0 0 0
0 0 0 0 0 0
0 0 0 0 0 0
0 0 0 0 0 0
0 0 0 0 0 0
0 0 0 0 0 0
0 0 0 0 0 0
0 0 0 0 0 0
0 0 0 0 0 0
0 0 0 0 0 0
0 0 0 0 0 0
0 0 0 0 0 0
0 0 0 0 0 0
0 0 0 0 0 0
0 0 0 0 0 0
0 0 0 0 0 0
0 0 0 0 0 0
0 0 0 0 0 0
0 0 0 0 0 0
0 0 0 0 0 0
0 0 0 0 0 0
0 0 0 0 0 0
0 0 0 0 0 0
0 0 0 0 0 0
0 0 0 0 0 0
0 0 0 0 0 0
0 0 0 0 0 0
0 0 0 0 0 0
0 0 0 0 0 0
0 0 0 0 0 0
0 0 0 0 0 0
0 0 0 0 0 0
0 0 0 0 0 0
0 0 0 0 0 0
0 0 0 0 0 0
0 0 0 0 0 0
0 0 0 0 0 0
0 0 0 0 0 0
0 0 0 0 0 0
0 0 0 0 0 0
0 0 0 0 0 0
0 0 0 0 0 0
0 0 0 0 0 0
0 0 0 0 0 0
0 0 0 0 0 0
0 0 0 0 0 0
0 0 0 0 0 0
0 0 0 0 0 0
0 0 0 0 0 0
0 0 0 0 0 0
0 0 0 0 0 0
0 0 0 0 0 0
0 0 0 0 0 0
0 0 0 0 0 0
0 0 0 0 0 0
0 0 0 0 0 0
0 0 0 0 0 0
0 0 0 0 0 0
0 0 0 0 0 0
0 0 0 0 0 0
0 0 0 0 0 0
0 0 0 0 0 0
0 0 0 0 0 0
0 0 0 0 0 0
0 0 0 0 0 0
0 0 0 0 0 0
0 0 0 0 0 0
0 0 0 0 0 0
0 0 0 0 0 0
0 0 0 0 0 0
0 0 0 0 0 0
0 0 0 0 0 0
0 0 0 0 0 0
0 0 0 0 0 0
0 0 0 0 0 0
0 0 0 0 0 0
0 0 0 0 0 0
0 0 0 0 0 0
0 0 0 0 0 0
0 0 0 0 0 0
0 0 0 0 0 0
0 0 0 0 0 0
0 0 0 0 0 0
0 0 0 0 0 0
0 0 0 0 0 0
0 0 0 0 0 0
0 0 0 0 0 0
0 0 0 0 0 0
0 0 0 0 0 0
0 0 0 0 0 0
0 0 0 0 0 0
0 0 0 0 0 0
0 0 0 0 0 0
0 0 0 0 0 0
0 0 0 0 0 0
0 0 0 0 0 0
0 0 0 0 0 0
0 0 0 0 0 0
0 0 0 0 0 0.2222
0.399969 0.399969 0.2222 0 0 0
0 0 0 0 0.399969 0.666637
0.666637 0.399969 0 0 0 0
0 0 0 0.399969 0.666637 0.666637
0.399969 0 0 0 0 0
0 0 0.399969 0.666637 0.666637 0.399969
0 0 0 0 0 0
0 0.2222 0.399969 0.399969 0.2222 0
0 0 0 0 0 0
0 0 0 0 0 0
0 0 0 0 0 0
0 0 0 0 0 0
0 0 0 0 0 0
0 0 0 0 0 0
0 0 0 0 0 0
0 0 0 0 0 0
0 0 0 0 0 0
0 0 0 0 0 0
0 0 0 0 0 0
0 0 0 0 0 0
0.399965 0.666635 0.666635 0.399965 0 0
0 0 0 0 0 0.666635
1 1 0.666635 0 0 0
0 0 0 0 0.666635 1
1 0.666635 0 0 0 0
0 0 0 0.666635 1 1
0.666635 0 0 0 0 0
0 0 0.399965 0.666635 0.666635 0.399965
0 0 0 0 0 0
0 0 0 0 0 0
0 0 0 0 0 0
0 0 0 0 0 0
0 0 0 0 0 0
0 0 0 0 0 0
0 0 0 0 0 0
0 0 0 0 0 0
0 0 0 0 0 0
0 0 0 0 0 0
0 0 0 0 0 0
0 0 0 0 0 0
0 0.222354 0.400194 0.400194 0.222354 0
0 0 0 0 0 0
0.400194 0.666881 0.666881 0.400194 0 0
0 0 0 0 0 0.400194
0.666881 0.666881 0.400194 0 0 0
0 0 0 0 0.400194 0.666881
0.666881 0.400194 0 0 0 0
0 0 0 0.222354 0.400194 0.400194
0.222354 0 0 0 0 0
0 0 0 0 0 0
0 0 0 0 0 0
0 0 0 0 0 0
0 0 0 0 0 0
0 0 0 0 0 0
0 0 0 0 0 0
0 0 0 0 0 0
0 0 0 0 0 0
0 0 0 0 0 0
0 0 0 0 0 0
0 0 0 0 0 0
0 0 0 0 0 0
0 0 0 0 0 0
0 0 0 0 0 0
0 0 0 0 0 0
0 0 0 0 0 0
0 0 0 0 0 0
0 0 0 0 0 0
0 0 0 0 0 0
0 0 0 0 0 0
0 0 0 0 0 0
0 0 0 0 0 0
0 0 0 0 0 0
0 0 0 0 0 0
0 0 0 0 0 0
0 0 0 0 0 0
0 0 0 0 0 0
0 0 0 0 0 0
0 0 0 0 0 0
0 0 0 0 0 0
0 0 0 0 0 0
0 0 0 0 0 0
0 0 0 0 0 0
0 0 0 0 0 0
0 0 0 0 0 0
0 0 0 0 0 0
0 0 0 0 0 0
0 0 0 0 0 0
0 0 0 0 0 0
0 0 0 0 0 0
0 0 0 0 0 0
0 0 0 0 0 0
0 0 0 0 0 0
0 0 0 0 0 0
0 0 0 0 0 0
0 0 0 0 0 0
0 0 0 0 0 0
0 0 0 0 0 0
0 0 0 0 0 0
0 0 0 0 0 0
0 0 0 0 0 0
0 0 0 0 0 0
0 0 0 0 0 0
0 0 0 0 0 0
0 0 0 0 0 0
0 0 0 0 0 0
0 0 0 0 0 0
0 0 0 0 0 0
0 0 0 0 0 0
0 0 0 0 0 0
0 0 0 0 0 0
0 0 0 0 0 0
0 0 0 0 0 0
0 0 0 0 0 0
0 0 0 0 0 0
0 0 0 0 0 1
1 1 1 1 1 1
1 1 1 1 1 1
1 1 1 1 1 1
1 1 1 1 1 0.519941
0.519941 0.523671 0.519941 0.764663 0.767342 0.519941
0.764663 0.767342 0.519941 0.523671 0.764663 0.519941
0.767342 0.764663 0.764663 1 0.764663 0.764663
1 0.519941 0.767342 0.764663 0.519941 0.767342
0.764663 0.764663 1 0.764663 0.764663 1
0.519941 0.767342 0.764663 0.519941 0.767342 0.764663
0.764663 1 0.764663 0.764663 1 0.519941
0.767342 0.519941 0.523671 0.519941 0.767342 0.519941
0.767342 0.523671 0.764663 0.764663 0.523661 0.764663
1 0.767335 0.764663 1 0.767335 0.764663
0.523661 1 0.764663 0.767335 1 1
1 1 1 1 0.764663 0.767335
1 0.764663 0.767335 1 1 1
1 1 1 0.764663 0.767335 1
0.764663 0.767335 1 1 1 1
1 1 0.764663 0.767335 0.764663 0.523661
0.764663 0.767335 0.764663 0.767335 0.523661 0.519897
0.519897 0.519897 0.76459 0.519897 0.76459 0.519897
0.76459 0.519897 0.76459 0.76459 0.76459 0.76459
0.519897 0.76459 0.519897 0.76459 0.76459 0.76459
0.76459 0.519897 0.76459 0.519897 0.76459 0.76459
0.76459 0.76459 0.519897 0.519897 0.519897 0.519897
0.818996 0.818996 0.818996 0.818996 0.818996 0.818996
0.818996 0.818996 0.818996 0.818996 0.818996 0.818996
0.82346 0.82346 0.82346 0.82346 1 1
1 1 1 1 0.82346 1
1 0.82346 1 1 1 1
1 1 0.82346 1 1 0.82346
1 1 1 1 1 1
0.82346 1 1 0.82346 1 0.82346
1 1 0.82346 1 0.82346 0.82346
1 0.823455 0.823455 0.823455 0.823455 1
1 0.818538 1 1 0.818538 0.823455
1 0.818538 0.823455 1 1 0.818538
1 1 0.818538 0.823455 1 0.818538
0.823455 1 1 0.818538 1 1
0.818538 0.823455 1 0.818538 0.823455 1
0.823455 0.818538 1 0.823455 0.818538 0.823455
0.823455 0.818538 0 0 0 0
0 0 0 0 0 0
0 0 0 0 0 0
0 0 0 0 0 0
0 0 0 0 0 0
0 0 0 0 0 0
0 0 0 0 0 0
0 0 0 0 0 0
0 0 0 0 0 0
0 0 0 0 0 0
0 0 0 0 0 0
0 0 0 0 0 0
0 0 0 0 0 0
0 0 0 0 0 0
0 0 0 0 0 0
0 0 0 0 0 0
0 0 0 0 0 0
0 0 0 0 0 0
0 0 0 0 0 0
0 0 0 0 0 0
0 0 0
        </DataArray>
        <DataArray type='Float32' Name='nSurfaceLayers' format='ascii'>
0 0 0 0 0 0
0 0 0 0 0 0
0.54259 0.54259 0.54259 0.54259 0.54259 0.54259
0.54259 0.54259 0.54259 0 0 0.54259
0.54259 0.54259 0.54259 0.54259 0.54259 0.54259
0.54259 0.54259 0 0 0.54259 0.54259
0.54259 0.54259 0.54259 0.54259 0.54259 0.54259
0.54259 0 0 0.54259 0.54259 0.54259
0.54259 0.54259 0.54259 0.54259 0.54259 0.54259
0 0 0.54259 0.54259 0.54259 0.54259
0.54259 0.54259 0.54259 0.54259 0.54259 0
0 0.54259 0.54259 0.54259 0.54259 0.54259
0.54259 0.54259 0.54259 0.54259 0 0
0.54259 0.54259 0.54259 0.54259 0.54259 0.54259
0.54259 0.54259 0.54259 0 0 0.54259
0.54259 0.54259 0.54259 0.54259 0.54259 0.54259
0.54259 0.54259 0 0 0.54259 0.54259
0.54259 0.54259 0.54259 0.54259 0.54259 0.54259
0.54259 0 0 0 0 0
0 0 0 0 0 0
0 0 0 0 0 0
0 0 0 0 0 0
0 0 0 0 0 0
0 0 0 0 0 0
0 0 0 0 0 0
0 0 0 0 0 0
0 0 0 0 0 0
0 0 0 0 0 0
0 0 0 0 0 0
0 0 0 0 0 0
0 0 0 0 0 0
0 0 0 0 0 0
0 0 0 0 0 0
0 0 0 0 0 0
0 0 0 0 0 0
0 0 0 0 0 0
0 0 0 0 0 0
0 0 0 0 0 0
0 0 0 0 0 0
0 0 0 0 0 0
0 0 0 0 0 0
0 0 0 0 0 0
0 0 0 0 0 0
0 0 0 0 0 0
0 0 0 0 0 0
0 0 0 0 0 0
0 0 0 0 0 0
0 0 0 0 0 0
0 0 0 0 0 0
0 0 0 0 0 0
0 0 0 0 0 0
0 0 0 0 0 0
0 0 0 0 0 0
0 0 0 0 0 0
0 0 0 0 0 0
0 0 0 0 0 0
0 0 0 0 0 0
0 0 0 0 0 0
0 0 0 0 0 0
0 0 0 0 0 0
0 0 0 0 0 0
0 0 0 0 0 0
0 0 0 0 0 0
0 0 0 0 0 0
0 0 0 0 0 0
0 0 0 0 0 0
0 0 0 0 0 0
0 0 0 0 0 0
0 0 0 0 0 0
0 0 0 0 0 0
0 0 0 0 0 0
0 0 0 0 0 0
0 0 0 0 0 0
0 0 0 0 0 0
0 0 0 0 0 0
0 0 0 0 0 0
0 0 0 0 0 0
0 0 0 0 0 0
0 0 0 0 0 0
0 0 0 0 0 0
0 0 0 0 0 0
0 0 0 0 0 0
0 0 0 0 0 0
0 0 0 0 0 0
0 0 0 0 0 0
0 0 0 0 0 0
0 0 0 0 0 0
0 0 0 0 0 0
0 0 0 0 0 0
0 0 0 0 0 0
0 0 0 0 0 0
0 0 0 0 0 0
0 0 0 0 0 0
0 0 0 0 0 0
0 0 0 0 0 0
0 0 0 0 0 0
0 0 0 0 0 0
0 0 0 0 0 0
0 0 0 0 0 0
0 0 0 0 0 0
0 0 0 0 0 0
0 0 0 0 0 0
0 0 0 0 0 0
0 0 0 0 0 0
0 0 0 0 0 0
0 0 0 0 0 0
0 0 0 0 0 0
0 0 0 0 0 0
0 0 0 0 0 0
0 0 0 0 0 0
0 0 0 0 0 0
0 0 0 0 0 0
0 0 0 0 0 0
0 0 0 0 0 0
0 0 0 0 0 0
0 0 0 0 0 0
0 0 0 0 0 0
0 0 0 0 0 0
0 0 0 0 0 0
0 0 0 0 0 0
0 0 0 0 0 0
0 0 0 0 0 0
0 0 0 0 0 0
0 0 0 0 0 0
0 0 0 0 0 0
0 0 0 0 0 0
0 0 0 0 0 0
0 0 0 0 0 0
0 0 0 0 0 0
0 0 0 0 0 0
0 0 0 0 0 0
0 0 0 0 0 0
0 0 0 0 0 0
0 0 0 0 0 0
0 0 0 0 0 0
0 0 0 0 0 0
0 0 0 0 0 0
0 0 0 0 0 0
0 0 0 0 0 0
0 0 0 0 0 0
0 0 0 0 0 0
0 0 0 0 0 0
0 0 0 0 0 0
0 0 0 0 0 0
0 0 0 0 0 0
0 0 0 0 0 0
0 0 0 0 0 0
0 0 0 0 0 0
0 0 0 0 0 0
0 0 0 0 0 0
0 0 0 0 0 0
0 0 0 0 0 0
0 0 0 0 0 0
0 0 0 0 0 0
0 0 0 0 0 0
0 0 0 0 0 0
0 0 0 0 0 0
0 0 0 0 0 0
0 0 0 0 0 0
0 0 0 0 0 0
0 0 0 0 0 0
0 0 0 0 0 0
0 0 0 0 0 0
0 0 0 0 0 0
0 0 0 0 0 0
0 0 0 0 0 0
0 0 0 0 0 0
0 0 0 0 0 0
0 0 0 0 0 0
0 0 0 0 0 0
0 0 0 0 0 0
0 0 0 0 0 0
0 0 0 0 0 0
0 0 0 0 0 0
0 0 0 0 0 0
0 0 0 0 0 0
0 0 0 0 0 0
0 0 0 0 0 0
0 0 0 0 0 0
0 0 0 0 0 0
0 0 0 0 0 0
0 0 0 0 0 0
0 0 0 0 0 0
0 0 0 0 0 0
0 0 0 0 0 0
0 0 0 0 0 0
0 0 0 0 0 0
0 0 0 0 0 0
0 0 0 0 0 0
0 0 0 0 0 0
0 0 0 0 0 0
0 0 0 0 0 0
0 0 0 0 0 0
0 0 0 0 0 0
0 0 0 0 0 0
0 0 0 0 0 0
0 0 0 0 0 0
0 0 0 0 0 0
0 0 0 0 0 0
0 0 0 0 0 0
0 0 0 0 0 0
0 0 0 0 0 0
0 0 0 0 0 0
0 0 0 0 0 0
0 0 0 0 0 0
0 0 0 0 0 0
0 0 0 0 0 0
0 0 0 0 0 0
0 0 0 0 0 0
0 0 0 0 0 0
0 0 0 0 0 0
0 0 0 0 0 0
0 0 0 0 0 0
0 0 0 0 0 0
0 0 0 0 0 0
0 0 0 0 0 0
0 0 0 0 0 0
0 0 0 0 0 0
0 0 0 0 0 0
0 0 0 0 0 0
0 0 0 0 0 0
0 0 0 0 0 0
0 0 0 0 0 0
0 0 0 0 0 0
0 0 0 0 0 0
0 0 0 0 0 0
0 0 0 0 0 0
0 0 0 0 0 0
0 0 0 0 0 0
0 0 0 0 0 0
0 0 0 0 0 0
0 0 0 0 0 0
0 0 0 0 0 0
0 0 0 0 0 0
0 0 0 0 0 0
0 0 0 0 0 0
0 0 0 0 0 0
0 0 0 0 0 0
0 0 0 0 0 0
0 0 0 0 0 0
0 0 0 0 0 0
0 0 0 0 0 0
0 0 0 0 0 0
0 0 0 0 0 0
0 0 0 0 0 0
0 0 0 0 0 0
0 0 0 0 0 0
0 0 0 0 0 0
0 0 0 0 0 0
0 0 0 0 0 0
0 0 0 0 0 0
0 0 0 0 0 0
0 0 0 0 0 0
0 0 0 0 0 0
0 0 0 0 0 0
0 0 0 0 0 0
0 0 0 0 0 0
0 0 0 0 0 0
0 0 0 0 0 0
0 0 0 0 0 0
0 0 0 0 0 0
0 0 0 0 0 0
0 0 0 0 0 0
0 0 0 0 0 0
0 0 0.269604 0.424706 1 0.424706
0.424706 1 0.424706 1 0.424706 1
0.424706 1 0.424706 1 0.424706 1
0.424706 1 0.424706 1 0.269604 0.424706
1 0.424706 1 1 1 1
1 1 1 1 0.424706 1
0.424706 1 1 1 1 1
1 1 1 0.424706 1 0.424706
1 1 1 1 1 1
1 1 0.424706 1 0.424706 1
1 1 1 1 1 1
1 0.424706 1 0.424706 1 1
1 1 1 1 1 1
0.424706 1 0.424706 1 1 1
1 1 1 1 1 0.424706
1 0.424706 1 1 1 1
1 1 1 1 0.424706 1
0.424706 1 1 1 1 1
1 1 1 0.424706 0.424706 0.269604
0.424706 0.424706 0.424706 0.424706 0.424706 0.424706
0.424706 0.424706 0.269604
        </DataArray>
        <DataArray type='Float32' Name='thickness' format='ascii'>
0 0 0 0 0 0
0 0 0 0 0 0
0 0 0 0 0 0
0 0 0 0 0 0
0 0 0 0 0 0
0 0 0 0 0 0
0 0 0 0 0 0
0 0 0 0 0 0
0 0 0 0 0 0
0 0 0 0 0 0
0 0 0 0 0 0
0 0 0 0 0 0
0 0 0 0 0 0