<?xml version="1.0"?>
<VTKFile type="UnstructuredGrid" version="0.1" byte_order="LittleEndian" header_type="UInt32" compressor="vtkZLibDataCompressor">
  <UnstructuredGrid>
    <Piece NumberOfPoints="13" NumberOfCells="3">
      <PointData>
        <DataArray type="Float32" Name="NODE" NumberOfComponents="3" format="ascii" RangeMin="0" RangeMax="3">
          0 0 0 1 0 0
          2 0 0 0 1 0
          0 2 0 1 0 1
          2 0 1 0 2 1
          0 1 1 0 0 2
          0.5 0 2 0 0.5 2
          0 0 3
          <InformationKey name="L2_NORM_RANGE" location="vtkDataArray" length="2">
            <Value index="0">
              0
            </Value>
            <Value index="1">
              3
            </Value>
          </InformationKey>
        </DataArray>
        <DataArray type="Float32" Name="X" NumberOfComponents="3" format="ascii" RangeMin="0" RangeMax="30">
          0 0 0 1 0 0
          2 0 0 0 1 0
          0 2 0 1 0 1
          2 0 1 0 2 1
          0 1 1 0 0 2
          0.5 0 2 0 0.5 2
          0 0 30
          <InformationKey name="L2_NORM_RANGE" location="vtkDataArray" length="2">
            <Value index="0">
              0
            </Value>
            <Value index="1">
              30
            </Value>
          </InformationKey>
        </DataArray>
      </PointData>
      <CellData>
        <DataArray type="Float32" Name="U" NumberOfComponents="3" format="ascii" RangeMin="0" RangeMax="2">
          0 0 0 0 1 0
          0 0 2
          <InformationKey name="L2_NORM_RANGE" location="vtkDataArray" length="2">
            <Value index="0">
              0
            </Value>
            <Value index="1">
              2
            </Value>
          </InformationKey>
        </DataArray>
      </CellData>
      <Points>
        <DataArray type="Float32" Name="Points" NumberOfComponents="3" format="ascii" RangeMin="0" RangeMax="3">
          0 0 0 1 0 0
          2 0 0 0 1 0
          0 2 0 1 0 1
          2 0 1 0 2 1
          0 1 1 0 0 2
          0.5 0 2 0 0.5 2
          0 0 3
          <InformationKey name="L2_NORM_RANGE" location="vtkDataArray" length="2">
            <Value index="0">
              0
            </Value>
            <Value index="1">
              3
            </Value>
          </InformationKey>
        </DataArray>
      </Points>
      <Cells>
        <DataArray type="Int64" Name="connectivity" format="ascii" RangeMin="0" RangeMax="12">
          0 1 3 5 8 9
          10 11 1 2 3 4
          5 6 7 8 9 10
          11 12
        </DataArray>
        <DataArray type="Int64" Name="offsets" format="ascii" RangeMin="8" RangeMax="20">
          8 16 20
        </DataArray>
        <DataArray type="UInt8" Name="types" format="ascii" RangeMin="42" RangeMax="42">
          42 42 42
        </DataArray>
        <DataArray type="Int64" IdType="1" Name="faces" format="ascii" RangeMin="0" RangeMax="12">
          6 5 0 1 5 10
          9 4 1 3 8 5
          5 0 9 11 8 3
          4 5 8 11 10 3
          9 10 11 3 0 3
          1 6 4 1 2 6
          5 4 2 4 7 6
          4 5 6 7 8 4
          3 8 7 4 4 1
          3 4 2 4 1 5
          8 3 4 3 9 11
          10 3 9 10 12 3
          10 11 12 3 9 12
          11
        </DataArray>
        <DataArray type="Int64" IdType="1" Name="faceoffsets" format="ascii" RangeMin="31" RangeMax="79">
          31 62 79
        </DataArray>
      </Cells>
    </Piece>
  </UnstructuredGrid>
</VTKFile>
