<?xml version='1.0'?>
<!-- case='ws' region='region0' time='0' index='0' -->
<VTKFile type='UnstructuredGrid' version='0.1' byte_order='LittleEndian' header_type='UInt64'>
  <UnstructuredGrid>
    <FieldData>
      <DataArray type='Float32' Name='TimeValue' NumberOfTuples='1' format='ascii'>
0
      </DataArray>
    </FieldData>
    <Piece NumberOfPoints='133' NumberOfCells='64'>
      <Points>
        <DataArray type='Float32' Name='Points' NumberOfComponents='3' format='ascii'>
-5 -4 0.6 0 -4 0.6
5 -4 0.6 10 -4 0.837815
15 -4 0.960912 -5 0 0.6
0 0 0.6 5 0 0.6
10 0 0.84854 15 0 0.976645
-5 4 0.6 0 4 0.6
5 4 0.6 10 4 0.837815
15 4 0.960912 -5 -4 4.3
0 -4 4.3 5 -4 4.3
10 -4 4.41891 15 -4 4.48046
-5 0 4.3 0 0 4.3
5 0 4.3 10 0 4.42427
15 0 4.48832 -5 4 4.3
0 4 4.3 5 4 4.3
10 4 4.41891 15 4 4.48046
-5 -4 8 0 -4 8
5 -4 8 10 -4 8
15 -4 8 -5 0 8
0 0 8 5 0 8
10 0 8 15 0 8
-5 4 8 0 4 8
5 4 8 10 4 8
15 4 8 2.5 -2 2.46365
2.5 2 2.46365 2.5 -4 0.6
0 -2 0.6 0 -4 2.45
5 -2 0.6 5 -4 2.45
2.5 0 0.6 0 2 0.6
0 0 2.45 5 2 0.6
5 0 2.45 2.5 4 0.6
0 4 2.45 5 4 2.45
2.5 -4 4.32468 0 -2 4.31672
5 -2 4.31672 2.5 0 4.32468
0 2 4.31672 5 2 4.31672
2.5 4 4.32468 0 -2 2.45585
5 -2 2.45585 2.5 0 2.45882
2.5 -2 4.33694 0 2 2.45585
5 2 2.45585 2.5 2 4.33694
2.5 4 2.45882 2.5 -4 2.45882
2.5 -2 0.6 2.5 2 0.6
-2.5 -2 2.46365 -2.5 2 2.46365
-2.5 -4 0.6 -5 -2 0.6
-5 -4 2.45 -2.5 0 0.6
-5 2 0.6 -5 0 2.45
-2.5 4 0.6 -5 4 2.45
-2.5 -4 4.32468 -5 -2 4.31672
-2.5 0 4.32468 -5 2 4.31672
-2.5 4 4.32468 -2.5 0 2.45882
-2.5 -2 4.33694 -2.5 2 4.33694
-2.5 4 2.45882 -2.5 -4 2.45882
-5 -2 2.45585 -5 2 2.45585
-2.5 -2 0.6 -2.5 2 0.6
-5 -4 0 -5 -2 0
-2.5 -2 0 -2.5 -4 0
-5 0 0 -5 2 0
-2.5 2 0 -2.5 0 0
0 -4 0 0 -2 0
2.5 -2 0 2.5 -4 0
0 0 0 0 2 0
2.5 2 0 2.5 0 0
5 -4 0 5 -2 0
5 0 0 10 0 0
10 -4 0 5 2 0
5 4 0 10 4 0
15 0 0 15 -4 0
15 4 0 0 4 0
2.5 4 0 -5 4 0
-2.5 4 0
        </DataArray>
      </Points>
      <Cells>
        <DataArray type='Int32' Name='connectivity' format='ascii'>
97 78 100 80 82 98
81 0 75 45 76 47
49 67 48 1 2 3
7 8 17 18 22 23
50 51 56 62 68 8
9 24 23 3 4 19
18 5 85 93 83 84
99 79 101 6 54 69
52 53 71 46 77 7
8 12 13 22 23 27
28 55 56 59 65 72
23 28 29 24 8 13
14 9 15 16 20 21
30 31 35 36 61 88
89 90 94 16 17 21
22 31 32 36 37 60
61 62 63 70 17 18
22 23 32 33 37 38
62 23 24 39 38 18
19 34 33 20 21 25
26 35 36 40 41 64
90 91 92 95 21 22
26 27 36 37 41 42
63 64 65 66 73 22
23 27 28 37 38 42
43 65 28 29 44 43
23 24 39 38 76 50
68 45 47 2 51 75
76 45 69 52 48 67
54 6 69 56 68 45
52 7 50 76 75 60
70 45 49 16 61 67
70 45 68 62 60 75
51 17 70 63 69 45
61 21 54 67 22 63
69 56 62 70 45 68
77 55 72 46 52 7
56 69 77 46 74 57
53 71 58 11 74 59
72 46 57 12 55 77
73 46 69 63 64 71
54 21 73 46 72 65
63 69 56 22 74 46
73 66 58 71 64 26
27 66 74 59 65 73
46 72 100 48 67 78
80 1 49 97 100 78
93 83 81 98 85 5
67 78 93 54 48 100
83 6 97 88 94 78
82 15 89 98 94 78
67 61 88 97 49 16
94 90 93 78 89 20
85 98 21 90 93 54
61 94 78 67 101 53
71 79 83 6 54 93
101 79 96 86 84 99
87 10 96 58 71 79
86 11 53 101 95 79
93 90 91 99 85 20
95 79 71 64 90 93
54 21 96 79 95 92
87 99 91 25 26 92
96 58 64 95 79 71
81 103 104 100 0 102
105 80 83 109 106 5
101 108 107 84 48 111
112 76 1 110 113 47
52 117 114 6 77 116
115 53 2 3 7 8
50 118 119 120 121 122
7 8 12 13 55 120
121 123 124 125 8 121
126 9 3 122 127 4
13 125 128 14 8 121
126 9 52 117 112 76
6 114 111 48 50 119
112 76 7 120 117 52
2 118 113 47 50 119
112 76 57 130 116 77
11 129 115 53 55 123
116 77 12 124 130 57
120 123 116 117 7 55
77 52 83 109 104 100
5 106 103 81 48 111
104 100 6 114 109 83
1 110 105 80 48 111
104 100 86 132 108 101
10 131 107 84 53 115
108 101 11 129 132 86
114 115 108 109 6 53
101 83
        </DataArray>
        <DataArray type='Int32' Name='offsets' format='ascii'>
8 16 29 37 45 53
66 74 87 100 109 117
130 143 152 160 168 176
184 192 200 208 216 224
232 240 248 256 264 272
280 288 296 304 312 320
328 336 344 352 360 368
376 384 392 400 408 416
426 436 444 452 460 468
476 484 492 500 508 516
524 532 540 548
        </DataArray>
        <DataArray type='UInt8' Name='types' format='ascii'>
12 12 42 12 12 12
42 12 42 42 42 12
42 42 42 12 12 12
12 12 12 12 12 12
12 12 12 12 12 12
12 12 12 12 12 12
12 12 12 12 12 12
12 12 12 12 12 12
42 42 12 12 12 12
12 12 12 12 12 12
12 12 12 12
        </DataArray>
        <DataArray type='Int32' Name='faces' format='ascii'>
9 4 3 8 23 18
5 7 56 22 23 8
5 17 18 23 22 62
4 2 51 68 50 4
7 50 68 56 4 17
62 68 51 4 22 56
68 62 5 2 50 7
8 3 5 2 3 18
17 51 9 4 8 13
28 23 5 22 23 28
27 65 4 7 56 72
55 4 12 55 72 59
4 22 65 72 56 4
27 59 72 65 5 7
55 12 13 8 5 12
59 27 28 13 5 8
23 22 56 7 9 5
16 61 21 36 31 5
20 35 36 21 90 4
15 89 94 88 4 16
88 94 61 4 20 90
94 89 4 21 61 94
90 5 15 88 16 31
30 5 15 30 35 20
89 4 30 31 36 35
9 5 17 62 22 37
32 5 21 36 37 22
63 4 16 61 70 60
4 17 60 70 62 4
21 63 70 61 4 22
62 70 63 5 16 60
17 32 31 4 31 32
37 36 5 31 36 21
61 16 6 4 18 23
38 33 4 22 37 38
23 4 17 18 33 32
4 32 33 38 37 5
62 22 23 18 17 5
32 37 22 62 17 9
5 21 64 26 41 36
4 20 91 95 90 4
21 90 95 64 4 25
92 95 91 4 26 64
95 92 5 25 40 41
26 92 5 20 35 40
25 91 4 35 36 41
40 5 90 21 36 35
20 9 5 22 65 27
42 37 4 21 64 73
63 4 22 63 73 65
4 26 66 73 64 4
27 65 73 66 5 26
41 42 27 66 4 36
37 42 41 5 63 22
37 36 21 5 36 41
26 64 21 6 4 23
28 43 38 4 27 42
43 28 4 37 38 43
42 5 65 27 28 23
22 4 23 38 37 22
5 37 42 27 65 22
7 4 7 8 121 120
4 8 3 122 121 4
50 7 120 119 4 2
50 119 118 4 3 2
118 122 5 118 119 120
121 122 5 3 8 7
50 2 7 4 13 8
121 125 4 55 12 124
123 4 7 55 123 120
4 12 13 125 124 5
120 123 124 125 121 5
8 13 12 55 7 4
120 121 8 7
        </DataArray>
        <DataArray type='Int32' Name='faceoffsets' format='ascii'>
-1 -1 50 -1 -1 -1
100 -1 150 200 233 -1
283 333 366 -1 -1 -1
-1 -1 -1 -1 -1 -1
-1 -1 -1 -1 -1 -1
-1 -1 -1 -1 -1 -1
-1 -1 -1 -1 -1 -1
-1 -1 -1 -1 -1 -1
404 442 -1 -1 -1 -1
-1 -1 -1 -1 -1 -1
-1 -1 -1 -1
        </DataArray>
      </Cells>
      <CellData>
        <DataArray type='Float32' Name='cellLevel' format='ascii'>
1 1 0 0 1 1
0 0 0 0 0 0
0 0 0 0 1 1
1 1 1 1 1 1
1 1 1 1 1 1
1 1 1 1 1 1
1 1 1 1 1 1
1 1 1 1 1 1
0 0 0 0 1 1
1 1 1 1 1 1
1 1 1 1
        </DataArray>
        <DataArray type='Float32' Name='nSurfaceLayers' format='ascii'>
0 0 0 0 0 0
0 0 0 0 0 0
0 0 0 0 0 0
0 0 0 0 0 0
0 0 0 0 0 0
0 0 0 0 0 0
0 0 0 0 0 0
0 0 1 1 1 1
1 1 1 1 1 1
1 1 1 1 1 1
1 1 1 1
        </DataArray>
        <DataArray type='Float32' Name='thickness' format='ascii'>
0 0 0 0 0 0
0 0 0 0 0 0
0 0 0 0 0 0
0 0 0 0 0 0
0 0 0 0 0 0
0 0 0 0 0 0
0 0 0 0 0 0
0 0 0 0 0 0
0 0 0 0 0 0
0 0 0 0 0 0
0 0 0 0
        </DataArray>
        <DataArray type='Float32' Name='thicknessFraction' format='ascii'>
0 0 0 0 0 0
0 0 0 0 0 0
0 0 0 0 0 0
0 0 0 0 0 0
0 0 0 0 0 0
0 0 0 0 0 0
0 0 0 0 0 0
0 0 0 0 0 0
0 0 0 0 0 0
0 0 0 0 0 0
0 0 0 0
        </DataArray>
      </CellData>
      <PointData>
        <DataArray type='Float32' Name='cellLevel' format='ascii'>
1 1 0.671493 0 0 1
1 0.669774 0 0 1 1
0.671493 0 0 0.667419 0.667435 0.399165
0 0 0.667405 0.667577 0.399722 0
0 0.667419 0.667435 0.399165 0 0
0 0 0 0 0 0
0 0 0 0 0 0
0 0 0 1 1 1
1 1 0.76879 0.761555 1 1
1 0.76879 0.775074 1 1 0.761555
0.700869 0.770417 0.526641 0.745435 0.770417 0.526641
0.700869 1 0.843066 1 0.796818 1
0.843066 0.796818 1 1 1 1
1 1 1 1 1 1
1 1 1 1 0.700869 0.728578
0.745435 0.728578 0.700869 1 0.796818 0.796818
1 1 1 1 1 1
1 1 1 1 1 1
1 1 1 1 1 1
1 1 1 1 0.670937 0.757486
0.666667 0 0 0.757486 0.670937 0
0 0 0 1 1 1
1
        </DataArray>
        <DataArray type='Float32' Name='nSurfaceLayers' format='ascii'>
0 0 0 0 0 0
0.532015 0.531171 0.533589 0 0 0
0 0 0 0 0 0
0 0 0 0 0 0
0 0 0 0 0 0
0 0 0 0 0 0
0 0 0 0 0 0
0 0 0 0 0 0
0.531945 0 0.534579 0 0.531845 0.531945
0 0.534579 0 0 0 0
0 0 0 0 0 0
0 0 0 0 0 0
0 0 0 0 0.531776 0.531776
0 0 0 0 0 0.531845
0 0 0 0 0 0
0 0 0 0 0 0
0 0 0 0 0.531776 0.531776
0.264653 0.394747 1 0.445382 0.394747 0.394747
1 1 0.445382 1 1 0.445382
1 1 1 1 0.448235 1
1 1 0.437376 1 0.448235 0.437376
0.390658 0.260374 0.260374 0.445382 0.445382 0.264653
0.445382
        </DataArray>
        <DataArray type='Float32' Name='thickness' format='ascii'>
0 0 0 0 0 0
0 0 0 0 0 0
0 0 0 0 0 0
0 0 0 0 0 0
0 0 0 0 0 0
0 0 0 0 0 0
0 0 0 0 0 0
0 0 0 0 0 0
0 0 0 0 0 0
0 0 0 0 0 0
0 0 0 0 0 0
0 0 0 0 0 0
0 0 0 0 0 0
0 0 0 0 0 0
0 0 0 0 0 0
0 0 0 0 0 0
0 0 0 0 0 0
0.158792 0.236848 0.6 0.267229 0.236848 0.236848
0.6 0.6 0.267229 0.6 0.6 0.267229
0.6 0.6 0.6 0.6 0.283474 0.62359
0.632424 0.801624 0.350611 0.62359 0.283474 0.350611
0.353927 0.235893 0.235893 0.267229 0.267229 0.158792
0.267229
        </DataArray>
        <DataArray type='Float32' Name='thicknessFraction' format='ascii'>
0 0 0 0 0 0
0 0 0 0 0 0
0 0 0 0 0 0
0 0 0 0 0 0
0 0 0 0 0 0
0 0 0 0 0 0
0 0 0 0 0 0
0 0 0 0 0 0
0 0 0 0 0 0
0 0 0 0 0 0
0 0 0 0 0 0
0 0 0 0 0 0
0 0 0 0 0 0
0 0 0 0 0 0
0 0 0 0 0 0
0 0 0 0 0 0
0 0 0 0 0 0
0.264653 0.394747 1 0.445382 0.394747 0.394747
1 1 0.445382 1 1 0.445382
1 1 1 1 0.422847 0.958793
0.943362 0.792533 0.346635 0.958793 0.422847 0.346635
0.294939 0.196577 0.196577 0.445382 0.445382 0.264653
0.445382
        </DataArray>
        <DataArray type='Float32' Name='pointLevel' format='ascii'>
0 0 0 0 0 0
0 0 0 0 0 0
0 0 0 0 0 0
0 0 0 0 0 0
0 0 0 0 0 0
0 0 0 0 0 0
0 0 0 0 0 0
0 0 0 1 1 1
1 1 1 1 1 1
1 1 1 1 1 1
1 1 1 1 1 1
1 1 1 1 1 1
1 1 1 1 1 1
1 1 1 1 1 1
1 1 1 1 1 1
1 1 1 1 1 1
1 1 1 1 1 1
0 1 1 1 0 1
1 1 0 1 1 1
0 1 1 1 0 1
0 0 0 1 0 0
0 0 0 0 1 0
1
        </DataArray>
      </PointData>
    </Piece>
  </UnstructuredGrid>
</VTKFile>
